ITEM: TIMESTEP energy, energy_weight, force_weight, nsims
1        -3845.5484696038811308    1    1   99
ITEM: NUMBER OF ATOMS
2         
ITEM: BOX BOUNDS xy xz yz pp pp pp
   -1.3348760694649493      2.6697521389298999     -1.3348760694649493
    0.0000000000000000      2.3120720961167671      0.0000000000000003
    0.0000000000000000      4.3355092792374048      0.0000000000000005
ITEM: ATOMS id type x y z
1      1          0.0000000000000000     0.0000000000000000     0.0000000000000000
2      1         -0.0000000000000000     1.5413821983368192     2.1677543726434885
ITEM: TIMESTEP energy, energy_weight, force_weight, nsims
2        -3845.6671597273011685    1    1   99
ITEM: NUMBER OF ATOMS
2         
ITEM: BOX BOUNDS xy xz yz pp pp pp
   -1.3407234780663995      2.6814469561328003     -1.3407234780663995
    0.0000000000000000      2.3222001001849089      0.0000000000000003
    0.0000000000000000      4.3545009256014300      0.0000000000000005
ITEM: ATOMS id type x y z
1      1          0.0000000000000000     0.0000000000000000     0.0000000000000000
2      1         -0.0000000000000000     1.5481342045573587     2.1772501946560192
ITEM: TIMESTEP energy, energy_weight, force_weight, nsims
3        -3845.7806083915979798    1    1   99
ITEM: NUMBER OF ATOMS
2         
ITEM: BOX BOUNDS xy xz yz pp pp pp
   -1.3465179689429494      2.6930359378859001     -1.3465179689429494
    0.0000000000000000      2.3322364481076372      0.0000000000000003
    0.0000000000000000      4.3733207018626148      0.0000000000000005
ITEM: ATOMS id type x y z
1      1          0.0000000000000000     0.0000000000000000     0.0000000000000000
2      1         -0.0000000000000000     1.5548251066492056     2.1866600816277133
ITEM: TIMESTEP energy, energy_weight, force_weight, nsims
4        -3845.8890146481348893    1    1   99
ITEM: NUMBER OF ATOMS
2         
ITEM: BOX BOUNDS xy xz yz pp pp pp
   -1.3522860009570494      2.7045720019141002     -1.3522860009570494
    0.0000000000000000      2.3422269679576591      0.0000000000000003
    0.0000000000000000      4.3920545430723772      0.0000000000000005
ITEM: ATOMS id type x y z
1      1          0.0000000000000000     0.0000000000000000     0.0000000000000000
2      1         -0.0000000000000000     1.5614854566767060     2.1960270010789888
ITEM: TIMESTEP energy, energy_weight, force_weight, nsims
5        -3845.9925770040458701    1    1   99
ITEM: NUMBER OF ATOMS
2         
ITEM: BOX BOUNDS xy xz yz pp pp pp
   -1.3580275741086993      2.7160551482174005     -1.3580275741086993
    0.0000000000000000      2.3521716597349744      0.0000000000000003
    0.0000000000000000      4.4107024492307190      0.0000000000000005
ITEM: ATOMS id type x y z
1      1          0.0000000000000000     0.0000000000000000     0.0000000000000000
2      1         -0.0000000000000000     1.5681152546398602     2.2053509530098450
ITEM: TIMESTEP energy, energy_weight, force_weight, nsims
6        -3846.0914845785346188    1    1   99
ITEM: NUMBER OF ATOMS
2         
ITEM: BOX BOUNDS xy xz yz pp pp pp
   -1.3637691472603495      2.7275382945207003     -1.3637691472603495
    0.0000000000000000      2.3621163515122898      0.0000000000000003
    0.0000000000000000      4.4293503553890616      0.0000000000000005
ITEM: ATOMS id type x y z
1      1          0.0000000000000000     0.0000000000000000     0.0000000000000000
2      1         -0.0000000000000000     1.5747450526030142     2.2146749049407015
ITEM: TIMESTEP energy, energy_weight, force_weight, nsims
7        -3846.1859150620180117    1    1   99
ITEM: NUMBER OF ATOMS
2         
ITEM: BOX BOUNDS xy xz yz pp pp pp
   -1.3694578026870994      2.7389156053742001     -1.3694578026870994
    0.0000000000000000      2.3719693871441923      0.0000000000000003
    0.0000000000000000      4.4478263914445613      0.0000000000000005
ITEM: ATOMS id type x y z
1      1          0.0000000000000000     0.0000000000000000     0.0000000000000000
2      1         -0.0000000000000000     1.5813137464374758     2.2239129218307205
ITEM: TIMESTEP energy, energy_weight, force_weight, nsims
8        -3846.2760393420635410    1    1   99
ITEM: NUMBER OF ATOMS
2         
ITEM: BOX BOUNDS xy xz yz pp pp pp
   -1.3751464581138493      2.7502929162277003     -1.3751464581138493
    0.0000000000000000      2.3818224227760947      0.0000000000000003
    0.0000000000000000      4.4663024275000618      0.0000000000000005
ITEM: ATOMS id type x y z
1      1          0.0000000000000000     0.0000000000000000     0.0000000000000000
2      1         -0.0000000000000000     1.5878824402719374     2.2331509387207396
ITEM: TIMESTEP energy, energy_weight, force_weight, nsims
9        -3846.3620242245292502    1    1   99
ITEM: NUMBER OF ATOMS
2         
ITEM: BOX BOUNDS xy xz yz pp pp pp
   -1.3808086546781493      2.7616173093563003     -1.3808086546781493
    0.0000000000000000      2.3916296303352902      0.0000000000000003
    0.0000000000000000      4.4846925285041417      0.0000000000000005
ITEM: ATOMS id type x y z
1      1          0.0000000000000000     0.0000000000000000     0.0000000000000000
2      1         -0.0000000000000000     1.5944205820420525     2.2423459880903400
ITEM: TIMESTEP energy, energy_weight, force_weight, nsims
10       -3846.4440280797416563    1    1   99
ITEM: NUMBER OF ATOMS
2         
ITEM: BOX BOUNDS xy xz yz pp pp pp
   -1.3864443923799994      2.7728887847600006     -1.3864443923799994
    0.0000000000000000      2.4013910098217797      0.0000000000000003
    0.0000000000000000      4.5029966944568001      0.0000000000000005
ITEM: ATOMS id type x y z
1      1          0.0000000000000000     0.0000000000000000     0.0000000000000000
2      1         -0.0000000000000000     1.6009281717478214     2.2514980699395215
ITEM: TIMESTEP energy, energy_weight, force_weight, nsims
11       -3846.5222009785484261    1    1   99
ITEM: NUMBER OF ATOMS
2         
ITEM: BOX BOUNDS xy xz yz pp pp pp
   -1.3920536712193994      2.7841073424388001     -1.3920536712193994
    0.0000000000000000      2.4111065612355622      0.0000000000000003
    0.0000000000000000      4.5212149253580369      0.0000000000000005
ITEM: ATOMS id type x y z
1      1          0.0000000000000000     0.0000000000000000     0.0000000000000000
2      1         -0.0000000000000000     1.6074052093892437     2.2606071842682840
ITEM: TIMESTEP energy, energy_weight, force_weight, nsims
12       -3846.5966861889528445    1    1   99
ITEM: NUMBER OF ATOMS
2         
ITEM: BOX BOUNDS xy xz yz pp pp pp
   -1.3976364911963495      2.7952729823927003     -1.3976364911963495
    0.0000000000000000      2.4207762845766387      0.0000000000000003
    0.0000000000000000      4.5393472212078532      0.0000000000000005
ITEM: ATOMS id type x y z
1      1          0.0000000000000000     0.0000000000000000     0.0000000000000000
2      1         -0.0000000000000000     1.6138516949663200     2.2696733310766288
ITEM: TIMESTEP energy, energy_weight, force_weight, nsims
13       -3846.6676250741556942    1    1   99
ITEM: NUMBER OF ATOMS
2         
ITEM: BOX BOUNDS xy xz yz pp pp pp
   -1.4031928523108494      2.8063857046217002     -1.4031928523108494
    0.0000000000000000      2.4304001798450083      0.0000000000000003
    0.0000000000000000      4.5573935820062488      0.0000000000000005
ITEM: ATOMS id type x y z
1      1          0.0000000000000000     0.0000000000000000     0.0000000000000000
2      1         -0.0000000000000000     1.6202676284790496     2.2786965103645542
ITEM: TIMESTEP energy, energy_weight, force_weight, nsims
14       -3846.7351462080036981    1    1   99
ITEM: NUMBER OF ATOMS
2         
ITEM: BOX BOUNDS xy xz yz pp pp pp
   -1.4087492134253494      2.8174984268507002     -1.4087492134253494
    0.0000000000000000      2.4400240751133779      0.0000000000000003
    0.0000000000000000      4.5754399428046444      0.0000000000000005
ITEM: ATOMS id type x y z
1      1          0.0000000000000000     0.0000000000000000     0.0000000000000000
2      1         -0.0000000000000000     1.6266835619917797     2.2877196896524796
ITEM: TIMESTEP energy, energy_weight, force_weight, nsims
15       -3846.7993837426815844    1    1   99
ITEM: NUMBER OF ATOMS
2         
ITEM: BOX BOUNDS xy xz yz pp pp pp
   -1.4142526568149496      2.8285053136299005     -1.4142526568149496
    0.0000000000000000      2.4495563142363350      0.0000000000000003
    0.0000000000000000      4.5933144335001987      0.0000000000000005
ITEM: ATOMS id type x y z
1      1          0.0000000000000000     0.0000000000000000     0.0000000000000000
2      1         -0.0000000000000000     1.6330383913758169     2.2966569338995684
ITEM: TIMESTEP energy, energy_weight, force_weight, nsims
16       -3846.8604534626779241    1    1   99
ITEM: NUMBER OF ATOMS
2         
ITEM: BOX BOUNDS xy xz yz pp pp pp
   -1.4197561002045493      2.8395122004091000     -1.4197561002045493
    0.0000000000000000      2.4590885533592912      0.0000000000000003
    0.0000000000000000      4.6111889241957522      0.0000000000000005
ITEM: ATOMS id type x y z
1      1          0.0000000000000000     0.0000000000000000     0.0000000000000000
2      1         -0.0000000000000000     1.6393932207598536     2.3055941781466562
ITEM: TIMESTEP energy, energy_weight, force_weight, nsims
17       -3846.9184742817956248    1    1   99
ITEM: NUMBER OF ATOMS
2         
ITEM: BOX BOUNDS xy xz yz pp pp pp
   -1.4252330847316992      2.8504661694634001     -1.4252330847316992
    0.0000000000000000      2.4685749644095414      0.0000000000000003
    0.0000000000000000      4.6289774798398851      0.0000000000000005
ITEM: ATOMS id type x y z
1      1          0.0000000000000000     0.0000000000000000     0.0000000000000000
2      1         -0.0000000000000000     1.6457174980795444     2.3144884548733256
ITEM: TIMESTEP energy, energy_weight, force_weight, nsims
18       -3846.9735618484660336    1    1   99
ITEM: NUMBER OF ATOMS
2         
ITEM: BOX BOUNDS xy xz yz pp pp pp
   -1.4306836103963994      2.8613672207928000     -1.4306836103963994
    0.0000000000000000      2.4780155473870855      0.0000000000000003
    0.0000000000000000      4.6466801004325964      0.0000000000000005
ITEM: ATOMS id type x y z
1      1          0.0000000000000000     0.0000000000000000     0.0000000000000000
2      1         -0.0000000000000000     1.6520112233348889     2.3233397640795763
ITEM: TIMESTEP energy, energy_weight, force_weight, nsims
19       -3847.0258209265662117    1    1   99
ITEM: NUMBER OF ATOMS
2         
ITEM: BOX BOUNDS xy xz yz pp pp pp
   -1.4361341360610995      2.8722682721222004     -1.4361341360610995
    0.0000000000000000      2.4874561303646292      0.0000000000000003
    0.0000000000000000      4.6643827210253086      0.0000000000000005
ITEM: ATOMS id type x y z
1      1          0.0000000000000000     0.0000000000000000     0.0000000000000000
2      1         -0.0000000000000000     1.6583049485902339     2.3321910732858275
ITEM: TIMESTEP energy, energy_weight, force_weight, nsims
20       -3847.0753569602552489    1    1   99
ITEM: NUMBER OF ATOMS
2         
ITEM: BOX BOUNDS xy xz yz pp pp pp
   -1.4415317440008995      2.8830634880018002     -1.4415317440008995
    0.0000000000000000      2.4968050571967595      0.0000000000000003
    0.0000000000000000      4.6819134715151778      0.0000000000000005
ITEM: ATOMS id type x y z
1      1          0.0000000000000000     0.0000000000000000     0.0000000000000000
2      1         -0.0000000000000000     1.6645375697168854     2.3409564474512403
ITEM: TIMESTEP energy, energy_weight, force_weight, nsims
21       -3847.1222670942183868    1    1   99
ITEM: NUMBER OF ATOMS
2         
ITEM: BOX BOUNDS xy xz yz pp pp pp
   -1.4469293519406994      2.8938587038814005     -1.4469293519406994
    0.0000000000000000      2.5061539840288902      0.0000000000000003
    0.0000000000000000      4.6994442220050487      0.0000000000000005
ITEM: ATOMS id type x y z
1      1          0.0000000000000000     0.0000000000000000     0.0000000000000000
2      1         -0.0000000000000000     1.6707701908435373     2.3497218216166544
ITEM: TIMESTEP energy, energy_weight, force_weight, nsims
22       -3847.1666488813093565    1    1   99
ITEM: NUMBER OF ATOMS
2         
ITEM: BOX BOUNDS xy xz yz pp pp pp
   -1.4523269598804993      2.9046539197610000     -1.4523269598804993
    0.0000000000000000      2.5155029108610205      0.0000000000000003
    0.0000000000000000      4.7169749724949188      0.0000000000000005
ITEM: ATOMS id type x y z
1      1          0.0000000000000000     0.0000000000000000     0.0000000000000000
2      1         -0.0000000000000000     1.6770028119701892     2.3584871957820677
ITEM: TIMESTEP energy, energy_weight, force_weight, nsims
23       -3847.2085941599907528    1    1   99
ITEM: NUMBER OF ATOMS
2         
ITEM: BOX BOUNDS xy xz yz pp pp pp
   -1.4576716500953992      2.9153433001908002     -1.4576716500953992
    0.0000000000000000      2.5247601815477383      0.0000000000000003
    0.0000000000000000      4.7343338528819467      0.0000000000000005
ITEM: ATOMS id type x y z
1      1          0.0000000000000000     0.0000000000000000     0.0000000000000000
2      1         -0.0000000000000000     1.6831743289681482     2.3671666349066434
ITEM: TIMESTEP energy, energy_weight, force_weight, nsims
24       -3847.2481872855905749    1    1   99
ITEM: NUMBER OF ATOMS
2         
ITEM: BOX BOUNDS xy xz yz pp pp pp
   -1.4630163403102994      2.9260326806206001     -1.4630163403102994
    0.0000000000000000      2.5340174522344556      0.0000000000000003
    0.0000000000000000      4.7516927332689747      0.0000000000000005
ITEM: ATOMS id type x y z
1      1          0.0000000000000000     0.0000000000000000     0.0000000000000000
2      1         -0.0000000000000000     1.6893458459661075     2.3758460740312195
ITEM: TIMESTEP energy, energy_weight, force_weight, nsims
25       -3847.2855184638860919    1    1   99
ITEM: NUMBER OF ATOMS
2         
ITEM: BOX BOUNDS xy xz yz pp pp pp
   -1.4683345716627494      2.9366691433255001     -1.4683345716627494
    0.0000000000000000      2.5432288948484669      0.0000000000000003
    0.0000000000000000      4.7689656786045820      0.0000000000000005
ITEM: ATOMS id type x y z
1      1          0.0000000000000000     0.0000000000000000     0.0000000000000000
2      1         -0.0000000000000000     1.6954868108997203     2.3844825456353771
ITEM: TIMESTEP energy, energy_weight, force_weight, nsims
26       -3847.3206657915861797    1    1   99
ITEM: NUMBER OF ATOMS
2         
ITEM: BOX BOUNDS xy xz yz pp pp pp
   -1.4736263441527495      2.9472526883054999     -1.4736263441527495
    0.0000000000000000      2.5523945093897713      0.0000000000000003
    0.0000000000000000      4.7861526888887678      0.0000000000000005
ITEM: ATOMS id type x y z
1      1          0.0000000000000000     0.0000000000000000     0.0000000000000000
2      1         -0.0000000000000000     1.7015972237689867     2.3930760497191157
ITEM: TIMESTEP energy, energy_weight, force_weight, nsims
27       -3847.3537096783652487    1    1   99
ITEM: NUMBER OF ATOMS
2         
ITEM: BOX BOUNDS xy xz yz pp pp pp
   -1.4788916577802995      2.9577833155606004     -1.4788916577802995
    0.0000000000000000      2.5615142958583696      0.0000000000000003
    0.0000000000000000      4.8032537641215338      0.0000000000000005
ITEM: ATOMS id type x y z
1      1          0.0000000000000000     0.0000000000000000     0.0000000000000000
2      1         -0.0000000000000000     1.7076770845739071     2.4016265862824353
ITEM: TIMESTEP energy, energy_weight, force_weight, nsims
28       -3847.3847259079611831    1    1   99
ITEM: NUMBER OF ATOMS
2         
ITEM: BOX BOUNDS xy xz yz pp pp pp
   -1.4841569714078495      2.9683139428157004     -1.4841569714078495
    0.0000000000000000      2.5706340823269676      0.0000000000000003
    0.0000000000000000      4.8203548393542990      0.0000000000000005
ITEM: ATOMS id type x y z
1      1          0.0000000000000000     0.0000000000000000     0.0000000000000000
2      1         -0.0000000000000000     1.7137569453788271     2.4101771228457554
ITEM: TIMESTEP energy, energy_weight, force_weight, nsims
29       -3847.4137848218333602    1    1   99
ITEM: NUMBER OF ATOMS
2         
ITEM: BOX BOUNDS xy xz yz pp pp pp
   -1.4893958261729494      2.9787916523459002     -1.4893958261729494
    0.0000000000000000      2.5797080407228590      0.0000000000000003
    0.0000000000000000      4.8373699795356435      0.0000000000000005
ITEM: ATOMS id type x y z
1      1          0.0000000000000000     0.0000000000000000     0.0000000000000000
2      1         -0.0000000000000000     1.7198062541194010     2.4186846918886569
ITEM: TIMESTEP energy, energy_weight, force_weight, nsims
30       -3847.4409596186369527    1    1   99
ITEM: NUMBER OF ATOMS
2         
ITEM: BOX BOUNDS xy xz yz pp pp pp
   -1.4946346809380495      2.9892693618761004     -1.4946346809380495
    0.0000000000000000      2.5887819991187504      0.0000000000000003
    0.0000000000000000      4.8543851197169881      0.0000000000000005
ITEM: ATOMS id type x y z
1      1          0.0000000000000000     0.0000000000000000     0.0000000000000000
2      1         -0.0000000000000000     1.7258555628599748     2.4271922609315579
ITEM: TIMESTEP energy, energy_weight, force_weight, nsims
31       -3847.4663147893820678    1    1   99
ITEM: NUMBER OF ATOMS
2         
ITEM: BOX BOUNDS xy xz yz pp pp pp
   -1.4998206179782492      2.9996412359565001     -1.4998206179782492
    0.0000000000000000      2.5977643013692284      0.0000000000000003
    0.0000000000000000      4.8712283897954904      0.0000000000000005
ITEM: ATOMS id type x y z
1      1          0.0000000000000000     0.0000000000000000     0.0000000000000000
2      1         -0.0000000000000000     1.7318437674718559     2.4356138949336215
ITEM: TIMESTEP energy, energy_weight, force_weight, nsims
32       -3847.4899144169048668    1    1   99
ITEM: NUMBER OF ATOMS
2         
ITEM: BOX BOUNDS xy xz yz pp pp pp
   -1.5050065550184493      3.0100131100369003     -1.5050065550184493
    0.0000000000000000      2.6067466036197069      0.0000000000000003
    0.0000000000000000      4.8880716598739937      0.0000000000000005
ITEM: ATOMS id type x y z
1      1          0.0000000000000000     0.0000000000000000     0.0000000000000000
2      1         -0.0000000000000000     1.7378319720837372     2.4440355289356859
ITEM: TIMESTEP energy, energy_weight, force_weight, nsims
33       -3847.5118223119307004    1    1   99
ITEM: NUMBER OF ATOMS
2         
ITEM: BOX BOUNDS xy xz yz pp pp pp
   -1.5101924920586494      3.0203849841173001     -1.5101924920586494
    0.0000000000000000      2.6157289058701854      0.0000000000000003
    0.0000000000000000      4.9049149299524961      0.0000000000000005
ITEM: ATOMS id type x y z
1      1          0.0000000000000000     0.0000000000000000     0.0000000000000000
2      1         -0.0000000000000000     1.7438201766956183     2.4524571629377494
ITEM: TIMESTEP energy, energy_weight, force_weight, nsims
34       -3847.5320976592452098    1    1   99
ITEM: NUMBER OF ATOMS
2         
ITEM: BOX BOUNDS xy xz yz pp pp pp
   -1.5153255113739492      3.0306510227479002     -1.5153255113739492
    0.0000000000000000      2.6246195519752509      0.0000000000000003
    0.0000000000000000      4.9215863299281564      0.0000000000000005
ITEM: ATOMS id type x y z
1      1          0.0000000000000000     0.0000000000000000     0.0000000000000000
2      1         -0.0000000000000000     1.7497472771788067     2.4607928618989758
ITEM: TIMESTEP energy, energy_weight, force_weight, nsims
35       -3847.5507976027806762    1    1   99
ITEM: NUMBER OF ATOMS
2         
ITEM: BOX BOUNDS xy xz yz pp pp pp
   -1.5204585306892504      3.0409170613785004     -1.5204585306892504
    0.0000000000000000      2.6335101980803151      0.0000000000000003
    0.0000000000000000      4.9382577299038166      0.0000000000000005
ITEM: ATOMS id type x y z
1      1          0.0000000000000000     0.0000000000000000     0.0000000000000000
2      1         -0.0000000000000000     1.7556743776619954     2.4691285608602023
ITEM: TIMESTEP energy, energy_weight, force_weight, nsims
36       -3847.5679787422413938    1    1   99
ITEM: NUMBER OF ATOMS
2         
ITEM: BOX BOUNDS xy xz yz pp pp pp
   -1.5255915500045494      3.0511831000091005     -1.5255915500045494
    0.0000000000000000      2.6424008441853815      0.0000000000000003
    0.0000000000000000      4.9549291298794778      0.0000000000000005
ITEM: ATOMS id type x y z
1      1          0.0000000000000000     0.0000000000000000     0.0000000000000000
2      1         -0.0000000000000000     1.7616014781451839     2.4774642598214287
ITEM: TIMESTEP energy, energy_weight, force_weight, nsims
37       -3847.5836946840772725    1    1   99
ITEM: NUMBER OF ATOMS
2         
ITEM: BOX BOUNDS xy xz yz pp pp pp
   -1.5306981104573993      3.0613962209148000     -1.5306981104573993
    0.0000000000000000      2.6512456622177405      0.0000000000000003
    0.0000000000000000      4.9715145948037165      0.0000000000000005
ITEM: ATOMS id type x y z
1      1          0.0000000000000000     0.0000000000000000     0.0000000000000000
2      1         -0.0000000000000000     1.7674980265640259     2.4857569912622361
ITEM: TIMESTEP energy, energy_weight, force_weight, nsims
38       -3847.5979980823403821    1    1   99
ITEM: NUMBER OF ATOMS
2         
ITEM: BOX BOUNDS xy xz yz pp pp pp
   -1.5357782120477994      3.0715564240956001     -1.5357782120477994
    0.0000000000000000      2.6600446521773926      0.0000000000000003
    0.0000000000000000      4.9880141246765355      0.0000000000000005
ITEM: ATOMS id type x y z
1      1          0.0000000000000000     0.0000000000000000     0.0000000000000000
2      1         -0.0000000000000000     1.7733640229185219     2.4940067551826259
ITEM: TIMESTEP energy, energy_weight, force_weight, nsims
39       -3847.6109360127447871    1    1   99
ITEM: NUMBER OF ATOMS
2         
ITEM: BOX BOUNDS xy xz yz pp pp pp
   -1.5408318547757494      3.0816637095515005     -1.5408318547757494
    0.0000000000000000      2.6687978140643387      0.0000000000000003
    0.0000000000000000      5.0044277194979339      0.0000000000000005
ITEM: ATOMS id type x y z
1      1          0.0000000000000000     0.0000000000000000     0.0000000000000000
2      1         -0.0000000000000000     1.7791994672086713     2.5022135515825958
ITEM: TIMESTEP energy, energy_weight, force_weight, nsims
40       -3847.6225609932862426    1    1   99
ITEM: NUMBER OF ATOMS
2         
ITEM: BOX BOUNDS xy xz yz pp pp pp
   -1.5458854975036993      3.0917709950074004     -1.5458854975036993
    0.0000000000000000      2.6775509759512843      0.0000000000000003
    0.0000000000000000      5.0208413143193313      0.0000000000000005
ITEM: ATOMS id type x y z
1      1          0.0000000000000000     0.0000000000000000     0.0000000000000000
2      1         -0.0000000000000000     1.7850349114988207     2.5104203479825666
ITEM: TIMESTEP energy, energy_weight, force_weight, nsims
41       -3847.6329177867110047    1    1   99
ITEM: NUMBER OF ATOMS
2         
ITEM: BOX BOUNDS xy xz yz pp pp pp
   -1.5509126813691996      3.1018253627384005     -1.5509126813691996
    0.0000000000000000      2.6862583097655239      0.0000000000000003
    0.0000000000000000      5.0371689740893082      0.0000000000000005
ITEM: ATOMS id type x y z
1      1          0.0000000000000000     0.0000000000000000     0.0000000000000000
2      1         -0.0000000000000000     1.7908398037246240     2.5185841768621180
ITEM: TIMESTEP energy, energy_weight, force_weight, nsims
42       -3847.6420515639374571    1    1   99
ITEM: NUMBER OF ATOMS
2         
ITEM: BOX BOUNDS xy xz yz pp pp pp
   -1.5559398652346994      3.1118797304694001     -1.5559398652346994
    0.0000000000000000      2.6949656435797631      0.0000000000000003
    0.0000000000000000      5.0534966338592859      0.0000000000000005
ITEM: ATOMS id type x y z
1      1          0.0000000000000000     0.0000000000000000     0.0000000000000000
2      1         -0.0000000000000000     1.7966446959504270     2.5267480057416698
ITEM: TIMESTEP energy, energy_weight, force_weight, nsims
43       -3847.6500079040520177    1    1   99
ITEM: NUMBER OF ATOMS
2         
ITEM: BOX BOUNDS xy xz yz pp pp pp
   -1.5609405902377493      3.1218811804755000     -1.5609405902377493
    0.0000000000000000      2.7036271493212953      0.0000000000000003
    0.0000000000000000      5.0697383585778413      0.0000000000000005
ITEM: ATOMS id type x y z
1      1          0.0000000000000000     0.0000000000000000     0.0000000000000000
2      1         -0.0000000000000000     1.8024190361118839     2.5348688671008031
ITEM: TIMESTEP energy, energy_weight, force_weight, nsims
44       -3847.6568287126060568    1    1   99
ITEM: NUMBER OF ATOMS
2         
ITEM: BOX BOUNDS xy xz yz pp pp pp
   -1.5659148563783494      3.1318297127567005     -1.5659148563783494
    0.0000000000000000      2.7122428269901220      0.0000000000000003
    0.0000000000000000      5.0858941482449769      0.0000000000000005
ITEM: ATOMS id type x y z
1      1          0.0000000000000000     0.0000000000000000     0.0000000000000000
2      1         -0.0000000000000000     1.8081628242089944     2.5429467609395173
ITEM: TIMESTEP energy, energy_weight, force_weight, nsims
45       -3847.6625503168143041    1    1   99
ITEM: NUMBER OF ATOMS
2         
ITEM: BOX BOUNDS xy xz yz pp pp pp
   -1.5708891225189492      3.1417782450379002     -1.5708891225189492
    0.0000000000000000      2.7208585046589482      0.0000000000000003
    0.0000000000000000      5.1020499379121125      0.0000000000000005
ITEM: ATOMS id type x y z
1      1          0.0000000000000000     0.0000000000000000     0.0000000000000000
2      1         -0.0000000000000000     1.8139066123061047     2.5510246547782316
ITEM: TIMESTEP energy, energy_weight, force_weight, nsims
46       -3847.6672167991364404    1    1   99
ITEM: NUMBER OF ATOMS
2         
ITEM: BOX BOUNDS xy xz yz pp pp pp
   -1.5758369297970991      3.1516738595942000     -1.5758369297970991
    0.0000000000000000      2.7294283542550675      0.0000000000000003
    0.0000000000000000      5.1181197925278257      0.0000000000000005
ITEM: ATOMS id type x y z
1      1          0.0000000000000000     0.0000000000000000     0.0000000000000000
2      1         -0.0000000000000000     1.8196198483388690     2.5590595810965269
ITEM: TIMESTEP energy, energy_weight, force_weight, nsims
47       -3847.6708640786168871    1    1   99
ITEM: NUMBER OF ATOMS
2         
ITEM: BOX BOUNDS xy xz yz pp pp pp
   -1.5807847370752492      3.1615694741505003     -1.5807847370752492
    0.0000000000000000      2.7379982038511876      0.0000000000000003
    0.0000000000000000      5.1341896471435398      0.0000000000000005
ITEM: ATOMS id type x y z
1      1          0.0000000000000000     0.0000000000000000     0.0000000000000000
2      1         -0.0000000000000000     1.8253330843716331     2.5670945074148226
ITEM: TIMESTEP energy, energy_weight, force_weight, nsims
48       -3847.6735312036084906    1    1   99
ITEM: NUMBER OF ATOMS
2         
ITEM: BOX BOUNDS xy xz yz pp pp pp
   -1.5857060854909493      3.1714121709819003     -1.5857060854909493
    0.0000000000000000      2.7465222253746009      0.0000000000000003
    0.0000000000000000      5.1501735667078323      0.0000000000000005
ITEM: ATOMS id type x y z
1      1          0.0000000000000000     0.0000000000000000     0.0000000000000000
2      1         -0.0000000000000000     1.8310157683400510     2.5750864662126998
ITEM: TIMESTEP energy, energy_weight, force_weight, nsims
49       -3847.6752509638440642    1    1   99
ITEM: NUMBER OF ATOMS
2         
ITEM: BOX BOUNDS xy xz yz pp pp pp
   -1.5906009750441994      3.1812019500884001     -1.5906009750441994
    0.0000000000000000      2.7550004188253072      0.0000000000000003
    0.0000000000000000      5.1660715512207052      0.0000000000000005
ITEM: ATOMS id type x y z
1      1          0.0000000000000000     0.0000000000000000     0.0000000000000000
2      1         -0.0000000000000000     1.8366679002441226     2.5830354574901579
ITEM: TIMESTEP energy, energy_weight, force_weight, nsims
50       -3847.6760587341386781    1    1   99
ITEM: NUMBER OF ATOMS
2         
ITEM: BOX BOUNDS xy xz yz pp pp pp
   -1.5954958645974493      3.1909917291949004     -1.5954958645974493
    0.0000000000000000      2.7634786122760140      0.0000000000000003
    0.0000000000000000      5.1819695357335780      0.0000000000000005
ITEM: ATOMS id type x y z
1      1          0.0000000000000000     0.0000000000000000     0.0000000000000000
2      1         -0.0000000000000000     1.8423200321481941     2.5909844487676166
ITEM: TIMESTEP energy, energy_weight, force_weight, nsims
51       -3847.6759853994262812    1    1   99
ITEM: NUMBER OF ATOMS
2         
ITEM: BOX BOUNDS xy xz yz pp pp pp
   -1.6003642952882493      3.2007285905764999     -1.6003642952882493
    0.0000000000000000      2.7719109776540138      0.0000000000000003
    0.0000000000000000      5.1977815851950293      0.0000000000000006
ITEM: ATOMS id type x y z
1      1          0.0000000000000000     0.0000000000000000     0.0000000000000000
2      1         -0.0000000000000000     1.8479416119879191     2.5988904725246558
ITEM: TIMESTEP energy, energy_weight, force_weight, nsims
52       -3847.6750648378947517    1    1   99
ITEM: NUMBER OF ATOMS
2         
ITEM: BOX BOUNDS xy xz yz pp pp pp
   -1.6052327259790493      3.2104654519581004     -1.6052327259790493
    0.0000000000000000      2.7803433430320146      0.0000000000000003
    0.0000000000000000      5.2135936346564806      0.0000000000000006
ITEM: ATOMS id type x y z
1      1          0.0000000000000000     0.0000000000000000     0.0000000000000000