ITEM: TIMESTEP energy, energy_weight, force_weight, nsims
1        -3845.5399616887666525    1    1   99
ITEM: NUMBER OF ATOMS
2         
ITEM: BOX BOUNDS xy xz yz pp pp pp
    0.0000000000000000      2.9904335518238998      0.0000000000000002
    0.0000000000000000      2.9904335518238994      0.0000000000000002
    0.0000000000000000      2.9904335518238994      0.0000000000000002
ITEM: ATOMS id type x y z
1      1          0.0000000000000000     0.0000000000000000     0.0000000000000000
2      1          1.4952167759119497     1.4952167759119497     1.4952167759119497
ITEM: TIMESTEP energy, energy_weight, force_weight, nsims
2        -3845.6562939447117060    1    1   99
ITEM: NUMBER OF ATOMS
2         
ITEM: BOX BOUNDS xy xz yz pp pp pp
    0.0000000000000000      3.0034513121493003      0.0000000000000002
    0.0000000000000000      3.0034513121492998      0.0000000000000002
    0.0000000000000000      3.0034513121492998      0.0000000000000002
ITEM: ATOMS id type x y z
1      1          0.0000000000000000     0.0000000000000000     0.0000000000000000
2      1          1.5017256560746499     1.5017256560746499     1.5017256560746499
ITEM: TIMESTEP energy, energy_weight, force_weight, nsims
3        -3845.7674614776710769    1    1   99
ITEM: NUMBER OF ATOMS
2         
ITEM: BOX BOUNDS xy xz yz pp pp pp
    0.0000000000000000      3.0164690724747003      0.0000000000000002
    0.0000000000000000      3.0164690724746999      0.0000000000000002
    0.0000000000000000      3.0164690724746999      0.0000000000000002
ITEM: ATOMS id type x y z
1      1          0.0000000000000000     0.0000000000000000     0.0000000000000000
2      1          1.5082345362373499     1.5082345362373499     1.5082345362373499
ITEM: TIMESTEP energy, energy_weight, force_weight, nsims
4        -3845.8736657880322127    1    1   99
ITEM: NUMBER OF ATOMS
2         
ITEM: BOX BOUNDS xy xz yz pp pp pp
    0.0000000000000000      3.0293809973503003      0.0000000000000002
    0.0000000000000000      3.0293809973502999      0.0000000000000002
    0.0000000000000000      3.0293809973502999      0.0000000000000002
ITEM: ATOMS id type x y z
1      1          0.0000000000000000     0.0000000000000000     0.0000000000000000
2      1          1.5146904986751499     1.5146904986751499     1.5146904986751499
ITEM: TIMESTEP energy, energy_weight, force_weight, nsims
5        -3845.9750957228857260    1    1   99
ITEM: NUMBER OF ATOMS
2         
ITEM: BOX BOUNDS xy xz yz pp pp pp
    0.0000000000000000      3.0422929222259003      0.0000000000000002
    0.0000000000000000      3.0422929222258999      0.0000000000000002
    0.0000000000000000      3.0422929222258999      0.0000000000000002
ITEM: ATOMS id type x y z
1      1          0.0000000000000000     0.0000000000000000     0.0000000000000000
2      1          1.5211464611129499     1.5211464611129499     1.5211464611129499
ITEM: TIMESTEP energy, energy_weight, force_weight, nsims
6        -3846.0719526465618401    1    1   99
ITEM: NUMBER OF ATOMS
2         
ITEM: BOX BOUNDS xy xz yz pp pp pp
    0.0000000000000000      3.0550990116517003      0.0000000000000002
    0.0000000000000000      3.0550990116516998      0.0000000000000002
    0.0000000000000000      3.0550990116516998      0.0000000000000002
ITEM: ATOMS id type x y z
1      1          0.0000000000000000     0.0000000000000000     0.0000000000000000
2      1          1.5275495058258499     1.5275495058258499     1.5275495058258499
ITEM: TIMESTEP energy, energy_weight, force_weight, nsims
7        -3846.1644051336606935    1    1   99
ITEM: NUMBER OF ATOMS
2         
ITEM: BOX BOUNDS xy xz yz pp pp pp
    0.0000000000000000      3.0678521833526000      0.0000000000000002
    0.0000000000000000      3.0678521833525996      0.0000000000000002
    0.0000000000000000      3.0678521833525996      0.0000000000000002
ITEM: ATOMS id type x y z
1      1          0.0000000000000000     0.0000000000000000     0.0000000000000000
2      1          1.5339260916762998     1.5339260916762998     1.5339260916762998
ITEM: TIMESTEP energy, energy_weight, force_weight, nsims
8        -3846.2526244799200867    1    1   99
ITEM: NUMBER OF ATOMS
2         
ITEM: BOX BOUNDS xy xz yz pp pp pp
    0.0000000000000000      3.0806053550535002      0.0000000000000002
    0.0000000000000000      3.0806053550534997      0.0000000000000002
    0.0000000000000000      3.0806053550534997      0.0000000000000002
ITEM: ATOMS id type x y z
1      1          0.0000000000000000     0.0000000000000000     0.0000000000000000
2      1          1.5403026775267499     1.5403026775267499     1.5403026775267499
ITEM: TIMESTEP energy, energy_weight, force_weight, nsims
9        -3846.3367738176598323    1    1   99
ITEM: NUMBER OF ATOMS
2         
ITEM: BOX BOUNDS xy xz yz pp pp pp
    0.0000000000000000      3.0932526913045999      0.0000000000000002
    0.0000000000000000      3.0932526913045995      0.0000000000000002
    0.0000000000000000      3.0932526913045995      0.0000000000000002
ITEM: ATOMS id type x y z
1      1          0.0000000000000000     0.0000000000000000     0.0000000000000000
2      1          1.5466263456522997     1.5466263456522997     1.5466263456522997
ITEM: TIMESTEP energy, energy_weight, force_weight, nsims
10       -3846.4170068912690112    1    1   99
ITEM: NUMBER OF ATOMS
2         
ITEM: BOX BOUNDS xy xz yz pp pp pp
    0.0000000000000000      3.1059000275557000      0.0000000000000002
    0.0000000000000000      3.1059000275556996      0.0000000000000002
    0.0000000000000000      3.1059000275556996      0.0000000000000002
ITEM: ATOMS id type x y z
1      1          0.0000000000000000     0.0000000000000000     0.0000000000000000
2      1          1.5529500137778498     1.5529500137778498     1.5529500137778498
ITEM: TIMESTEP energy, energy_weight, force_weight, nsims
11       -3846.4934705062282774    1    1   99
ITEM: NUMBER OF ATOMS
2         
ITEM: BOX BOUNDS xy xz yz pp pp pp
    0.0000000000000000      3.1184415283570002      0.0000000000000002
    0.0000000000000000      3.1184415283569997      0.0000000000000002
    0.0000000000000000      3.1184415283569997      0.0000000000000002
ITEM: ATOMS id type x y z
1      1          0.0000000000000000     0.0000000000000000     0.0000000000000000
2      1          1.5592207641784999     1.5592207641784999     1.5592207641784999
ITEM: TIMESTEP energy, energy_weight, force_weight, nsims
12       -3846.5663155497295520    1    1   99
ITEM: NUMBER OF ATOMS
2         
ITEM: BOX BOUNDS xy xz yz pp pp pp
    0.0000000000000000      3.1309830291582998      0.0000000000000002
    0.0000000000000000      3.1309830291582994      0.0000000000000002
    0.0000000000000000      3.1309830291582994      0.0000000000000002
ITEM: ATOMS id type x y z
1      1          0.0000000000000000     0.0000000000000000     0.0000000000000000
2      1          1.5654915145791497     1.5654915145791497     1.5654915145791497
ITEM: TIMESTEP energy, energy_weight, force_weight, nsims
13       -3846.6356742691591535    1    1   99
ITEM: NUMBER OF ATOMS
2         
ITEM: BOX BOUNDS xy xz yz pp pp pp
    0.0000000000000000      3.1434186945098004      0.0000000000000002
    0.0000000000000000      3.1434186945097999      0.0000000000000002
    0.0000000000000000      3.1434186945097999      0.0000000000000002
ITEM: ATOMS id type x y z
1      1          0.0000000000000000     0.0000000000000000     0.0000000000000000
2      1          1.5717093472549000     1.5717093472549000     1.5717093472549000
ITEM: TIMESTEP energy, energy_weight, force_weight, nsims
14       -3846.7016768710468568    1    1   99
ITEM: NUMBER OF ATOMS
2         
ITEM: BOX BOUNDS xy xz yz pp pp pp
    0.0000000000000000      3.1558543598613005      0.0000000000000002
    0.0000000000000000      3.1558543598613000      0.0000000000000002
    0.0000000000000000      3.1558543598613000      0.0000000000000002
ITEM: ATOMS id type x y z
1      1          0.0000000000000000     0.0000000000000000     0.0000000000000000
2      1          1.5779271799306500     1.5779271799306500     1.5779271799306500
ITEM: TIMESTEP energy, energy_weight, force_weight, nsims
15       -3846.7644487999286866    1    1   99
ITEM: NUMBER OF ATOMS
2         
ITEM: BOX BOUNDS xy xz yz pp pp pp
    0.0000000000000000      3.1682371074879003      0.0000000000000002
    0.0000000000000000      3.1682371074878999      0.0000000000000002
    0.0000000000000000      3.1682371074878999      0.0000000000000002
ITEM: ATOMS id type x y z
1      1          0.0000000000000000     0.0000000000000000     0.0000000000000000
2      1          1.5841185537439499     1.5841185537439499     1.5841185537439499
ITEM: TIMESTEP energy, energy_weight, force_weight, nsims
16       -3846.8241146839991416    1    1   99
ITEM: NUMBER OF ATOMS
2         
ITEM: BOX BOUNDS xy xz yz pp pp pp
    0.0000000000000000      3.1805140196647002      0.0000000000000002
    0.0000000000000000      3.1805140196646997      0.0000000000000002
    0.0000000000000000      3.1805140196646997      0.0000000000000002
ITEM: ATOMS id type x y z
1      1          0.0000000000000000     0.0000000000000000     0.0000000000000000
2      1          1.5902570098323499     1.5902570098323499     1.5902570098323499
ITEM: TIMESTEP energy, energy_weight, force_weight, nsims
17       -3846.8807923486033360    1    1   99
ITEM: NUMBER OF ATOMS
2         
ITEM: BOX BOUNDS xy xz yz pp pp pp
    0.0000000000000000      3.1927909318415004      0.0000000000000002
    0.0000000000000000      3.1927909318415000      0.0000000000000002
    0.0000000000000000      3.1927909318415000      0.0000000000000002
ITEM: ATOMS id type x y z
1      1          0.0000000000000000     0.0000000000000000     0.0000000000000000
2      1          1.5963954659207500     1.5963954659207500     1.5963954659207500
ITEM: TIMESTEP energy, energy_weight, force_weight, nsims
18       -3846.9345856052168529    1    1   99
ITEM: NUMBER OF ATOMS
2         
ITEM: BOX BOUNDS xy xz yz pp pp pp
    0.0000000000000000      3.2050149262934005      0.0000000000000002
    0.0000000000000000      3.2050149262934000      0.0000000000000002
    0.0000000000000000      3.2050149262934000      0.0000000000000002
ITEM: ATOMS id type x y z
1      1          0.0000000000000000     0.0000000000000000     0.0000000000000000
2      1          1.6025074631467000     1.6025074631467000     1.6025074631467000
ITEM: TIMESTEP energy, energy_weight, force_weight, nsims
19       -3846.9856084695907157    1    1   99
ITEM: NUMBER OF ATOMS
2         
ITEM: BOX BOUNDS xy xz yz pp pp pp
    0.0000000000000000      3.2171860030204003      0.0000000000000002
    0.0000000000000000      3.2171860030203998      0.0000000000000002
    0.0000000000000000      3.2171860030203998      0.0000000000000002
ITEM: ATOMS id type x y z
1      1          0.0000000000000000     0.0000000000000000     0.0000000000000000
2      1          1.6085930015101999     1.6085930015101999     1.6085930015101999
ITEM: TIMESTEP energy, energy_weight, force_weight, nsims
20       -3847.0339598551495328    1    1   99
ITEM: NUMBER OF ATOMS
2         
ITEM: BOX BOUNDS xy xz yz pp pp pp
    0.0000000000000000      3.2293570797474000      0.0000000000000002
    0.0000000000000000      3.2293570797473996      0.0000000000000002
    0.0000000000000000      3.2293570797473996      0.0000000000000002
ITEM: ATOMS id type x y z
1      1          0.0000000000000000     0.0000000000000000     0.0000000000000000
2      1          1.6146785398736998     1.6146785398736998     1.6146785398736998
ITEM: TIMESTEP energy, energy_weight, force_weight, nsims
21       -3847.0797355460072140    1    1   99
ITEM: NUMBER OF ATOMS
2         
ITEM: BOX BOUNDS xy xz yz pp pp pp
    0.0000000000000000      3.2414223210246003      0.0000000000000002
    0.0000000000000000      3.2414223210245998      0.0000000000000002
    0.0000000000000000      3.2414223210245998      0.0000000000000002
ITEM: ATOMS id type x y z
1      1          0.0000000000000000     0.0000000000000000     0.0000000000000000
2      1          1.6207111605122999     1.6207111605122999     1.6207111605122999
ITEM: TIMESTEP energy, energy_weight, force_weight, nsims
22       -3847.1230309181082703    1    1   99
ITEM: NUMBER OF ATOMS
2         
ITEM: BOX BOUNDS xy xz yz pp pp pp
    0.0000000000000000      3.2534875623018005      0.0000000000000002
    0.0000000000000000      3.2534875623018000      0.0000000000000002
    0.0000000000000000      3.2534875623018000      0.0000000000000002
ITEM: ATOMS id type x y z
1      1          0.0000000000000000     0.0000000000000000     0.0000000000000000
2      1          1.6267437811509000     1.6267437811509000     1.6267437811509000
ITEM: TIMESTEP energy, energy_weight, force_weight, nsims
23       -3847.1639433882487538    1    1   99
ITEM: NUMBER OF ATOMS
2         
ITEM: BOX BOUNDS xy xz yz pp pp pp
    0.0000000000000000      3.2654469681292002      0.0000000000000002
    0.0000000000000000      3.2654469681291998      0.0000000000000002
    0.0000000000000000      3.2654469681291998      0.0000000000000002
ITEM: ATOMS id type x y z
1      1          0.0000000000000000     0.0000000000000000     0.0000000000000000
2      1          1.6327234840645999     1.6327234840645999     1.6327234840645999
ITEM: TIMESTEP energy, energy_weight, force_weight, nsims
24       -3847.2025506449667773    1    1   99
ITEM: NUMBER OF ATOMS
2         
ITEM: BOX BOUNDS xy xz yz pp pp pp
    0.0000000000000000      3.2774063739565999      0.0000000000000002
    0.0000000000000000      3.2774063739565995      0.0000000000000002
    0.0000000000000000      3.2774063739565995      0.0000000000000002
ITEM: ATOMS id type x y z
1      1          0.0000000000000000     0.0000000000000000     0.0000000000000000
2      1          1.6387031869782998     1.6387031869782998     1.6387031869782998
ITEM: TIMESTEP energy, energy_weight, force_weight, nsims
25       -3847.2389389483869309    1    1   99
ITEM: NUMBER OF ATOMS
2         
ITEM: BOX BOUNDS xy xz yz pp pp pp
    0.0000000000000000      3.2893128620591003      0.0000000000000002
    0.0000000000000000      3.2893128620590999      0.0000000000000002
    0.0000000000000000      3.2893128620590999      0.0000000000000002
ITEM: ATOMS id type x y z
1      1          0.0000000000000000     0.0000000000000000     0.0000000000000000
2      1          1.6446564310295499     1.6446564310295499     1.6446564310295499
ITEM: TIMESTEP energy, energy_weight, force_weight, nsims
26       -3847.2731933341224249    1    1   99
ITEM: NUMBER OF ATOMS
2         
ITEM: BOX BOUNDS xy xz yz pp pp pp
    0.0000000000000000      3.3012193501616003      0.0000000000000002
    0.0000000000000000      3.3012193501615998      0.0000000000000002
    0.0000000000000000      3.3012193501615998      0.0000000000000002
ITEM: ATOMS id type x y z
1      1          0.0000000000000000     0.0000000000000000     0.0000000000000000
2      1          1.6506096750807999     1.6506096750807999     1.6506096750807999
ITEM: TIMESTEP energy, energy_weight, force_weight, nsims
27       -3847.3053870008293416    1    1   99
ITEM: NUMBER OF ATOMS
2         
ITEM: BOX BOUNDS xy xz yz pp pp pp
    0.0000000000000000      3.3130200028143002      0.0000000000000002
    0.0000000000000000      3.3130200028142998      0.0000000000000002
    0.0000000000000000      3.3130200028142998      0.0000000000000002
ITEM: ATOMS id type x y z
1      1          0.0000000000000000     0.0000000000000000     0.0000000000000000
2      1          1.6565100014071499     1.6565100014071499     1.6565100014071499
ITEM: TIMESTEP energy, energy_weight, force_weight, nsims
28       -3847.3355983173278219    1    1   99
ITEM: NUMBER OF ATOMS
2         
ITEM: BOX BOUNDS xy xz yz pp pp pp
    0.0000000000000000      3.3248206554670006      0.0000000000000002
    0.0000000000000000      3.3248206554670001      0.0000000000000002
    0.0000000000000000      3.3248206554670001      0.0000000000000002
ITEM: ATOMS id type x y z
1      1          0.0000000000000000     0.0000000000000000     0.0000000000000000
2      1          1.6624103277335001     1.6624103277335001     1.6624103277335001
ITEM: TIMESTEP energy, energy_weight, force_weight, nsims
29       -3847.3638980332475512    1    1   99
ITEM: NUMBER OF ATOMS
2         
ITEM: BOX BOUNDS xy xz yz pp pp pp
    0.0000000000000000      3.3365683903948002      0.0000000000000002
    0.0000000000000000      3.3365683903947998      0.0000000000000002
    0.0000000000000000      3.3365683903947998      0.0000000000000002
ITEM: ATOMS id type x y z
1      1          0.0000000000000000     0.0000000000000000     0.0000000000000000
2      1          1.6682841951973999     1.6682841951973999     1.6682841951973999
ITEM: TIMESTEP energy, energy_weight, force_weight, nsims
30       -3847.3903562179348228    1    1   99
ITEM: NUMBER OF ATOMS
2         
ITEM: BOX BOUNDS xy xz yz pp pp pp
    0.0000000000000000      3.3482632075977001      0.0000000000000002
    0.0000000000000000      3.3482632075976997      0.0000000000000002
    0.0000000000000000      3.3482632075976997      0.0000000000000002
ITEM: ATOMS id type x y z
1      1          0.0000000000000000     0.0000000000000000     0.0000000000000000
2      1          1.6741316037988498     1.6741316037988498     1.6741316037988498
ITEM: TIMESTEP energy, energy_weight, force_weight, nsims
31       -3847.4150335528015603    1    1   99
ITEM: NUMBER OF ATOMS
2         
ITEM: BOX BOUNDS xy xz yz pp pp pp
    0.0000000000000000      3.3599051070757002      0.0000000000000002
    0.0000000000000000      3.3599051070756998      0.0000000000000002
    0.0000000000000000      3.3599051070756998      0.0000000000000002
ITEM: ATOMS id type x y z
1      1          0.0000000000000000     0.0000000000000000     0.0000000000000000
2      1          1.6799525535378499     1.6799525535378499     1.6799525535378499
ITEM: TIMESTEP energy, energy_weight, force_weight, nsims
32       -3847.4379968418261342    1    1   99
ITEM: NUMBER OF ATOMS
2         
ITEM: BOX BOUNDS xy xz yz pp pp pp
    0.0000000000000000      3.3715470065536999      0.0000000000000002
    0.0000000000000000      3.3715470065536994      0.0000000000000002
    0.0000000000000000      3.3715470065536994      0.0000000000000002
ITEM: ATOMS id type x y z
1      1          0.0000000000000000     0.0000000000000000     0.0000000000000000
2      1          1.6857735032768497     1.6857735032768497     1.6857735032768497
ITEM: TIMESTEP energy, energy_weight, force_weight, nsims
33       -3847.4593083991053390    1    1   99
ITEM: NUMBER OF ATOMS
2         
ITEM: BOX BOUNDS xy xz yz pp pp pp
    0.0000000000000000      3.3830830705818999      0.0000000000000002
    0.0000000000000000      3.3830830705818995      0.0000000000000002
    0.0000000000000000      3.3830830705818995      0.0000000000000002
ITEM: ATOMS id type x y z
1      1          0.0000000000000000     0.0000000000000000     0.0000000000000000
2      1          1.6915415352909497     1.6915415352909497     1.6915415352909497
ITEM: TIMESTEP energy, energy_weight, force_weight, nsims
34       -3847.4790295863381289    1    1   99
ITEM: NUMBER OF ATOMS
2         
ITEM: BOX BOUNDS xy xz yz pp pp pp
    0.0000000000000000      3.3946720523350002      0.0000000000000002
    0.0000000000000000      3.3946720523349998      0.0000000000000002
    0.0000000000000000      3.3946720523349998      0.0000000000000002
ITEM: ATOMS id type x y z
1      1          0.0000000000000000     0.0000000000000000     0.0000000000000000
2      1          1.6973360261674999     1.6973360261674999     1.6973360261674999
ITEM: TIMESTEP energy, energy_weight, force_weight, nsims
35       -3847.4972108806637152    1    1   99
ITEM: NUMBER OF ATOMS
2         
ITEM: BOX BOUNDS xy xz yz pp pp pp
    0.0000000000000000      3.4061551986383001      0.0000000000000002
    0.0000000000000000      3.4061551986382996      0.0000000000000002
    0.0000000000000000      3.4061551986382996      0.0000000000000002
ITEM: ATOMS id type x y z
1      1          0.0000000000000000     0.0000000000000000     0.0000000000000000
2      1          1.7030775993191498     1.7030775993191498     1.7030775993191498
ITEM: TIMESTEP energy, energy_weight, force_weight, nsims
36       -3847.5139117389826424    1    1   99
ITEM: NUMBER OF ATOMS
2         
ITEM: BOX BOUNDS xy xz yz pp pp pp
    0.0000000000000000      3.4175854272167006      0.0000000000000002
    0.0000000000000000      3.4175854272167001      0.0000000000000002
    0.0000000000000000      3.4175854272167001      0.0000000000000002
ITEM: ATOMS id type x y z
1      1          0.0000000000000000     0.0000000000000000     0.0000000000000000
2      1          1.7087927136083501     1.7087927136083501     1.7087927136083501
ITEM: TIMESTEP energy, energy_weight, force_weight, nsims
37       -3847.5291863119728077    1    1   99
ITEM: NUMBER OF ATOMS
2         
ITEM: BOX BOUNDS xy xz yz pp pp pp
    0.0000000000000000      3.4290156557951001      0.0000000000000002
    0.0000000000000000      3.4290156557950997      0.0000000000000002
    0.0000000000000000      3.4290156557950997      0.0000000000000002
ITEM: ATOMS id type x y z
1      1          0.0000000000000000     0.0000000000000000     0.0000000000000000
2      1          1.7145078278975499     1.7145078278975499     1.7145078278975499
ITEM: TIMESTEP energy, energy_weight, force_weight, nsims
38       -3847.5430796344962801    1    1   99
ITEM: NUMBER OF ATOMS
2         
ITEM: BOX BOUNDS xy xz yz pp pp pp
    0.0000000000000000      3.4404458843735002      0.0000000000000002
    0.0000000000000000      3.4404458843734997      0.0000000000000002
    0.0000000000000000      3.4404458843734997      0.0000000000000002
ITEM: ATOMS id type x y z
1      1          0.0000000000000000     0.0000000000000000     0.0000000000000000
2      1          1.7202229421867499     1.7202229421867499     1.7202229421867499
ITEM: TIMESTEP energy, energy_weight, force_weight, nsims
39       -3847.5556457211732777    1    1   99
ITEM: NUMBER OF ATOMS
2         
ITEM: BOX BOUNDS xy xz yz pp pp pp
    0.0000000000000000      3.4517702775021002      0.0000000000000002
    0.0000000000000000      3.4517702775020997      0.0000000000000002
    0.0000000000000000      3.4517702775020997      0.0000000000000002
ITEM: ATOMS id type x y z
1      1          0.0000000000000000     0.0000000000000000     0.0000000000000000
2      1          1.7258851387510499     1.7258851387510499     1.7258851387510499
ITEM: TIMESTEP energy, energy_weight, force_weight, nsims
40       -3847.5669319198323137    1    1   99
ITEM: NUMBER OF ATOMS
2         
ITEM: BOX BOUNDS xy xz yz pp pp pp
    0.0000000000000000      3.4630946706307002      0.0000000000000002
    0.0000000000000000      3.4630946706306998      0.0000000000000002
    0.0000000000000000      3.4630946706306998      0.0000000000000002
ITEM: ATOMS id type x y z
1      1          0.0000000000000000     0.0000000000000000     0.0000000000000000
2      1          1.7315473353153499     1.7315473353153499     1.7315473353153499
ITEM: TIMESTEP energy, energy_weight, force_weight, nsims
41       -3847.5769790475696936    1    1   99
ITEM: NUMBER OF ATOMS
2         
ITEM: BOX BOUNDS xy xz yz pp pp pp
    0.0000000000000000      3.4743661460344000      0.0000000000000002
    0.0000000000000000      3.4743661460343995      0.0000000000000002
    0.0000000000000000      3.4743661460343995      0.0000000000000002
ITEM: ATOMS id type x y z
1      1          0.0000000000000000     0.0000000000000000     0.0000000000000000
2      1          1.7371830730171998     1.7371830730171998     1.7371830730171998
ITEM: TIMESTEP energy, energy_weight, force_weight, nsims
42       -3847.5858375815228101    1    1   99
ITEM: NUMBER OF ATOMS
2         
ITEM: BOX BOUNDS xy xz yz pp pp pp
    0.0000000000000000      3.4855847037132004      0.0000000000000002
    0.0000000000000000      3.4855847037131999      0.0000000000000002
    0.0000000000000000      3.4855847037131999      0.0000000000000002
ITEM: ATOMS id type x y z
1      1          0.0000000000000000     0.0000000000000000     0.0000000000000000
2      1          1.7427923518566000     1.7427923518566000     1.7427923518566000
ITEM: TIMESTEP energy, energy_weight, force_weight, nsims
43       -3847.5935441210217505    1    1   99
ITEM: NUMBER OF ATOMS
2         
ITEM: BOX BOUNDS xy xz yz pp pp pp
    0.0000000000000000      3.4968032613919999      0.0000000000000002
    0.0000000000000000      3.4968032613919995      0.0000000000000002
    0.0000000000000000      3.4968032613919995      0.0000000000000002
ITEM: ATOMS id type x y z
1      1          0.0000000000000000     0.0000000000000000     0.0000000000000000
2      1          1.7484016306959997     1.7484016306959997     1.7484016306959997
ITEM: TIMESTEP energy, energy_weight, force_weight, nsims
44       -3847.6001423403558874    1    1   99
ITEM: NUMBER OF ATOMS
2         
ITEM: BOX BOUNDS xy xz yz pp pp pp
    0.0000000000000000      3.5079689013459001      0.0000000000000002
    0.0000000000000000      3.5079689013458997      0.0000000000000002
    0.0000000000000000      3.5079689013458997      0.0000000000000002
ITEM: ATOMS id type x y z
1      1          0.0000000000000000     0.0000000000000000     0.0000000000000000
2      1          1.7539844506729498     1.7539844506729498     1.7539844506729498
ITEM: TIMESTEP energy, energy_weight, force_weight, nsims
45       -3847.6056723763340415    1    1   99
ITEM: NUMBER OF ATOMS
2         
ITEM: BOX BOUNDS xy xz yz pp pp pp
    0.0000000000000000      3.5190816235749001      0.0000000000000002
    0.0000000000000000      3.5190816235748996      0.0000000000000002
    0.0000000000000000      3.5190816235748996      0.0000000000000002
ITEM: ATOMS id type x y z
1      1          0.0000000000000000     0.0000000000000000     0.0000000000000000
2      1          1.7595408117874498     1.7595408117874498     1.7595408117874498
ITEM: TIMESTEP energy, energy_weight, force_weight, nsims
46       -3847.6101725970265761    1    1   99
ITEM: NUMBER OF ATOMS
2         
ITEM: BOX BOUNDS xy xz yz pp pp pp
    0.0000000000000000      3.5301943458039000      0.0000000000000002
    0.0000000000000000      3.5301943458038996      0.0000000000000002
    0.0000000000000000      3.5301943458038996      0.0000000000000002
ITEM: ATOMS id type x y z
1      1          0.0000000000000000     0.0000000000000000     0.0000000000000000
2      1          1.7650971729019498     1.7650971729019498     1.7650971729019498
ITEM: TIMESTEP energy, energy_weight, force_weight, nsims
47       -3847.6136810983871328    1    1   99
ITEM: NUMBER OF ATOMS
2         
ITEM: BOX BOUNDS xy xz yz pp pp pp
    0.0000000000000000      3.5412541503080002      0.0000000000000002
    0.0000000000000000      3.5412541503079997      0.0000000000000002
    0.0000000000000000      3.5412541503079997      0.0000000000000002
ITEM: ATOMS id type x y z
1      1          0.0000000000000000     0.0000000000000000     0.0000000000000000
2      1          1.7706270751539999     1.7706270751539999     1.7706270751539999
ITEM: TIMESTEP energy, energy_weight, force_weight, nsims
48       -3847.6162320307171285    1    1   99
ITEM: NUMBER OF ATOMS
2         
ITEM: BOX BOUNDS xy xz yz pp pp pp
    0.0000000000000000      3.5522610370872001      0.0000000000000002
    0.0000000000000000      3.5522610370871996      0.0000000000000002
    0.0000000000000000      3.5522610370871996      0.0000000000000002
ITEM: ATOMS id type x y z
1      1          0.0000000000000000     0.0000000000000000     0.0000000000000000
2      1          1.7761305185435998     1.7761305185435998     1.7761305185435998
ITEM: TIMESTEP energy, energy_weight, force_weight, nsims
49       -3847.6178598164342475    1    1   99
ITEM: NUMBER OF ATOMS
2         
ITEM: BOX BOUNDS xy xz yz pp pp pp
    0.0000000000000000      3.5632679238664000      0.0000000000000002
    0.0000000000000000      3.5632679238663996      0.0000000000000002
    0.0000000000000000      3.5632679238663996      0.0000000000000002
ITEM: ATOMS id type x y z
1      1          0.0000000000000000     0.0000000000000000     0.0000000000000000
2      1          1.7816339619331998     1.7816339619331998     1.7816339619331998
ITEM: TIMESTEP energy, energy_weight, force_weight, nsims
50       -3847.6186017351496957    1    1   99
ITEM: NUMBER OF ATOMS
2         
ITEM: BOX BOUNDS xy xz yz pp pp pp
    0.0000000000000000      3.5742218929207001      0.0000000000000002
    0.0000000000000000      3.5742218929206997      0.0000000000000002
    0.0000000000000000      3.5742218929206997      0.0000000000000002
ITEM: ATOMS id type x y z
1      1          0.0000000000000000     0.0000000000000000     0.0000000000000000
2      1          1.7871109464603498     1.7871109464603498     1.7871109464603498
ITEM: TIMESTEP energy, energy_weight, force_weight, nsims
51       -3847.6184873112288187    1    1   99
ITEM: NUMBER OF ATOMS
2         
ITEM: BOX BOUNDS xy xz yz pp pp pp
    0.0000000000000000      3.5851229442501000      0.0000000000000002
    0.0000000000000000      3.5851229442500996      0.0000000000000002
    0.0000000000000000      3.5851229442500996      0.0000000000000002
ITEM: ATOMS id type x y z
1      1          0.0000000000000000     0.0000000000000000     0.0000000000000000
2      1          1.7925614721250498     1.7925614721250498     1.7925614721250498
ITEM: TIMESTEP energy, energy_weight, force_weight, nsims
52       -3847.6175486541196733    1    1   99
ITEM: NUMBER OF ATOMS
2         
ITEM: BOX BOUNDS xy xz yz pp pp pp
    0.0000000000000000      3.5960239955794999      0.0000000000000002
    0.0000000000000000      3.5960239955794995      0.0000000000000002
    0.0000000000000000      3.5960239955794995      0.0000000000000002
ITEM: ATOMS id type x y z
1      1          0.0000000000000000     0.0000000000000000     0.0000000000000000