ITEM: TIMESTEP energy, energy_weight, force_weight, nsims
1        -7689.5132468374504242    1    1   99
ITEM: NUMBER OF ATOMS
4         
ITEM: BOX BOUNDS xy xz yz pp pp pp
    0.0000000000000000      3.6783639755239004      0.0000000000000002
    0.0000000000000000      3.6783639755239004      0.0000000000000002
    0.0000000000000000      3.6783639755238999      0.0000000000000002
ITEM: ATOMS id type x y z
1      1          0.0000000000000000     0.0000000000000000     0.0000000000000000
2      1          1.8391819877619500     1.8391819877619500     0.0000000000000000
3      1          1.8391819877619500     0.0000000000000000     1.8391819877619500
4      1          0.0000000000000000     1.8391819877619500     1.8391819877619500
ITEM: TIMESTEP energy, energy_weight, force_weight, nsims
2        -7689.8000512791413712    1    1   99
ITEM: NUMBER OF ATOMS
4         
ITEM: BOX BOUNDS xy xz yz pp pp pp
    0.0000000000000000      3.6943980461686001      0.0000000000000002
    0.0000000000000000      3.6943980461686001      0.0000000000000002
    0.0000000000000000      3.6943980461685997      0.0000000000000002
ITEM: ATOMS id type x y z
1      1          0.0000000000000000     0.0000000000000000     0.0000000000000000
2      1          1.8471990230842998     1.8471990230842998     0.0000000000000000
3      1          1.8471990230842998     0.0000000000000000     1.8471990230842998
4      1          0.0000000000000000     1.8471990230842998     1.8471990230842998
ITEM: TIMESTEP energy, energy_weight, force_weight, nsims
3        -7690.0751642084269406    1    1   99
ITEM: NUMBER OF ATOMS
4         
ITEM: BOX BOUNDS xy xz yz pp pp pp
    0.0000000000000000      3.7103791990884001      0.0000000000000002
    0.0000000000000000      3.7103791990884001      0.0000000000000002
    0.0000000000000000      3.7103791990883996      0.0000000000000002
ITEM: ATOMS id type x y z
1      1          0.0000000000000000     0.0000000000000000     0.0000000000000000
2      1          1.8551895995441998     1.8551895995441998     0.0000000000000000
3      1          1.8551895995441998     0.0000000000000000     1.8551895995441998
4      1          0.0000000000000000     1.8551895995441998     1.8551895995441998
ITEM: TIMESTEP energy, energy_weight, force_weight, nsims
4        -7690.3390109394285901    1    1   99
ITEM: NUMBER OF ATOMS
4         
ITEM: BOX BOUNDS xy xz yz pp pp pp
    0.0000000000000000      3.7263074342832998      0.0000000000000002
    0.0000000000000000      3.7263074342832998      0.0000000000000002
    0.0000000000000000      3.7263074342832994      0.0000000000000002
ITEM: ATOMS id type x y z
1      1          0.0000000000000000     0.0000000000000000     0.0000000000000000
2      1          1.8631537171416497     1.8631537171416497     0.0000000000000000
3      1          1.8631537171416497     0.0000000000000000     1.8631537171416497
4      1          0.0000000000000000     1.8631537171416497     1.8631537171416497
ITEM: TIMESTEP energy, energy_weight, force_weight, nsims
5        -7690.5920332491650697    1    1   99
ITEM: NUMBER OF ATOMS
4         
ITEM: BOX BOUNDS xy xz yz pp pp pp
    0.0000000000000000      3.7421827517533002      0.0000000000000002
    0.0000000000000000      3.7421827517533002      0.0000000000000002
    0.0000000000000000      3.7421827517532997      0.0000000000000002
ITEM: ATOMS id type x y z
1      1          0.0000000000000000     0.0000000000000000     0.0000000000000000
2      1          1.8710913758766499     1.8710913758766499     0.0000000000000000
3      1          1.8710913758766499     0.0000000000000000     1.8710913758766499
4      1          0.0000000000000000     1.8710913758766499     1.8710913758766499
ITEM: TIMESTEP energy, energy_weight, force_weight, nsims
6        -7690.8346307369829447    1    1   99
ITEM: NUMBER OF ATOMS
4         
ITEM: BOX BOUNDS xy xz yz pp pp pp
    0.0000000000000000      3.7579522337735001      0.0000000000000002
    0.0000000000000000      3.7579522337735001      0.0000000000000002
    0.0000000000000000      3.7579522337734996      0.0000000000000002
ITEM: ATOMS id type x y z
1      1          0.0000000000000000     0.0000000000000000     0.0000000000000000
2      1          1.8789761168867498     1.8789761168867498     0.0000000000000000
3      1          1.8789761168867498     0.0000000000000000     1.8789761168867498
4      1          0.0000000000000000     1.8789761168867498     1.8789761168867498
ITEM: TIMESTEP energy, energy_weight, force_weight, nsims
7        -7691.0671970157336546    1    1   99
ITEM: NUMBER OF ATOMS
4         
ITEM: BOX BOUNDS xy xz yz pp pp pp
    0.0000000000000000      3.7736687980688002      0.0000000000000002
    0.0000000000000000      3.7736687980688002      0.0000000000000002
    0.0000000000000000      3.7736687980687997      0.0000000000000002
ITEM: ATOMS id type x y z
1      1          0.0000000000000000     0.0000000000000000     0.0000000000000000
2      1          1.8868343990343999     1.8868343990343999     0.0000000000000000
3      1          1.8868343990343999     0.0000000000000000     1.8868343990343999
4      1          0.0000000000000000     1.8868343990343999     1.8868343990343999
ITEM: TIMESTEP energy, energy_weight, force_weight, nsims
8        -7691.2900991671476731    1    1   99
ITEM: NUMBER OF ATOMS
4         
ITEM: BOX BOUNDS xy xz yz pp pp pp
    0.0000000000000000      3.7892795269143003      0.0000000000000002
    0.0000000000000000      3.7892795269143003      0.0000000000000002
    0.0000000000000000      3.7892795269142998      0.0000000000000002
ITEM: ATOMS id type x y z
1      1          0.0000000000000000     0.0000000000000000     0.0000000000000000
2      1          1.8946397634571499     1.8946397634571499     0.0000000000000000
3      1          1.8946397634571499     0.0000000000000000     1.8946397634571499
4      1          0.0000000000000000     1.8946397634571499     1.8946397634571499
ITEM: TIMESTEP energy, energy_weight, force_weight, nsims
9        -7691.5036980143377150    1    1   99
ITEM: NUMBER OF ATOMS
4         
ITEM: BOX BOUNDS xy xz yz pp pp pp
    0.0000000000000000      3.8048902557598003      0.0000000000000002
    0.0000000000000000      3.8048902557598003      0.0000000000000002
    0.0000000000000000      3.8048902557597999      0.0000000000000002
ITEM: ATOMS id type x y z
1      1          0.0000000000000000     0.0000000000000000     0.0000000000000000
2      1          1.9024451278798999     1.9024451278798999     0.0000000000000000
3      1          1.9024451278798999     0.0000000000000000     1.9024451278798999
4      1          0.0000000000000000     1.9024451278798999     1.9024451278798999
ITEM: TIMESTEP energy, energy_weight, force_weight, nsims
10       -7691.7083341079269303    1    1   99
ITEM: NUMBER OF ATOMS
4         
ITEM: BOX BOUNDS xy xz yz pp pp pp
    0.0000000000000000      3.8203951491555004      0.0000000000000002
    0.0000000000000000      3.8203951491555004      0.0000000000000002
    0.0000000000000000      3.8203951491554999      0.0000000000000002
ITEM: ATOMS id type x y z
1      1          0.0000000000000000     0.0000000000000000     0.0000000000000000
2      1          1.9101975745777500     1.9101975745777500     0.0000000000000000
3      1          1.9101975745777500     0.0000000000000000     1.9101975745777500
4      1          0.0000000000000000     1.9101975745777500     1.9101975745777500
ITEM: TIMESTEP energy, energy_weight, force_weight, nsims
11       -7691.9043392908915848    1    1   99
ITEM: NUMBER OF ATOMS
4         
ITEM: BOX BOUNDS xy xz yz pp pp pp
    0.0000000000000000      3.8358471248263002      0.0000000000000002
    0.0000000000000000      3.8358471248263002      0.0000000000000002
    0.0000000000000000      3.8358471248262997      0.0000000000000002
ITEM: ATOMS id type x y z
1      1          0.0000000000000000     0.0000000000000000     0.0000000000000000
2      1          1.9179235624131499     1.9179235624131499     0.0000000000000000
3      1          1.9179235624131499     0.0000000000000000     1.9179235624131499
4      1          0.0000000000000000     1.9179235624131499     1.9179235624131499
ITEM: TIMESTEP energy, energy_weight, force_weight, nsims
12       -7692.0920339774193053    1    1   99
ITEM: NUMBER OF ATOMS
4         
ITEM: BOX BOUNDS xy xz yz pp pp pp
    0.0000000000000000      3.8512461827722002      0.0000000000000002
    0.0000000000000000      3.8512461827722002      0.0000000000000002
    0.0000000000000000      3.8512461827721998      0.0000000000000002
ITEM: ATOMS id type x y z
1      1          0.0000000000000000     0.0000000000000000     0.0000000000000000
2      1          1.9256230913860999     1.9256230913860999     0.0000000000000000
3      1          1.9256230913860999     0.0000000000000000     1.9256230913860999
4      1          0.0000000000000000     1.9256230913860999     1.9256230913860999
ITEM: TIMESTEP energy, energy_weight, force_weight, nsims
13       -7692.2717193976677663    1    1   99
ITEM: NUMBER OF ATOMS
4         
ITEM: BOX BOUNDS xy xz yz pp pp pp
    0.0000000000000000      3.8665923229932000      0.0000000000000002
    0.0000000000000000      3.8665923229932000      0.0000000000000002
    0.0000000000000000      3.8665923229931995      0.0000000000000002
ITEM: ATOMS id type x y z
1      1          0.0000000000000000     0.0000000000000000     0.0000000000000000
2      1          1.9332961614965998     1.9332961614965998     0.0000000000000000
3      1          1.9332961614965998     0.0000000000000000     1.9332961614965998
4      1          0.0000000000000000     1.9332961614965998     1.9332961614965998
ITEM: TIMESTEP energy, energy_weight, force_weight, nsims
14       -7692.4436944688213771    1    1   99
ITEM: NUMBER OF ATOMS
4         
ITEM: BOX BOUNDS xy xz yz pp pp pp
    0.0000000000000000      3.8818855454893004      0.0000000000000002
    0.0000000000000000      3.8818855454893004      0.0000000000000002
    0.0000000000000000      3.8818855454893000      0.0000000000000002
ITEM: ATOMS id type x y z
1      1          0.0000000000000000     0.0000000000000000     0.0000000000000000
2      1          1.9409427727446500     1.9409427727446500     0.0000000000000000
3      1          1.9409427727446500     0.0000000000000000     1.9409427727446500
4      1          0.0000000000000000     1.9409427727446500     1.9409427727446500
ITEM: TIMESTEP energy, energy_weight, force_weight, nsims
15       -7692.6082273591900957    1    1   99
ITEM: NUMBER OF ATOMS
4         
ITEM: BOX BOUNDS xy xz yz pp pp pp
    0.0000000000000000      3.8970729325355999      0.0000000000000002
    0.0000000000000000      3.8970729325355999      0.0000000000000002
    0.0000000000000000      3.8970729325355995      0.0000000000000002
ITEM: ATOMS id type x y z
1      1          0.0000000000000000     0.0000000000000000     0.0000000000000000
2      1          1.9485364662677997     1.9485364662677997     0.0000000000000000
3      1          1.9485364662677997     0.0000000000000000     1.9485364662677997
4      1          0.0000000000000000     1.9485364662677997     1.9485364662677997
ITEM: TIMESTEP energy, energy_weight, force_weight, nsims
16       -7692.7655899106212019    1    1   99
ITEM: NUMBER OF ATOMS
4         
ITEM: BOX BOUNDS xy xz yz pp pp pp
    0.0000000000000000      3.9122074018570001      0.0000000000000002
    0.0000000000000000      3.9122074018570001      0.0000000000000002
    0.0000000000000000      3.9122074018569997      0.0000000000000002
ITEM: ATOMS id type x y z
1      1          0.0000000000000000     0.0000000000000000     0.0000000000000000
2      1          1.9561037009284998     1.9561037009284998     0.0000000000000000
3      1          1.9561037009284998     0.0000000000000000     1.9561037009284998
4      1          0.0000000000000000     1.9561037009284998     1.9561037009284998
ITEM: TIMESTEP energy, energy_weight, force_weight, nsims
17       -7692.9160377741818593    1    1   99
ITEM: NUMBER OF ATOMS
4         
ITEM: BOX BOUNDS xy xz yz pp pp pp
    0.0000000000000000      3.9273418711783998      0.0000000000000002
    0.0000000000000000      3.9273418711783998      0.0000000000000002
    0.0000000000000000      3.9273418711783994      0.0000000000000002
ITEM: ATOMS id type x y z
1      1          0.0000000000000000     0.0000000000000000     0.0000000000000000
2      1          1.9636709355891997     1.9636709355891997     0.0000000000000000
3      1          1.9636709355891997     0.0000000000000000     1.9636709355891997
4      1          0.0000000000000000     1.9636709355891997     1.9636709355891997
ITEM: TIMESTEP energy, energy_weight, force_weight, nsims
18       -7693.0598200702024769    1    1   99
ITEM: NUMBER OF ATOMS
4         
ITEM: BOX BOUNDS xy xz yz pp pp pp
    0.0000000000000000      3.9423705050500004      0.0000000000000002
    0.0000000000000000      3.9423705050500004      0.0000000000000002
    0.0000000000000000      3.9423705050500000      0.0000000000000002
ITEM: ATOMS id type x y z
1      1          0.0000000000000000     0.0000000000000000     0.0000000000000000
2      1          1.9711852525250000     1.9711852525250000     0.0000000000000000
3      1          1.9711852525250000     0.0000000000000000     1.9711852525250000
4      1          0.0000000000000000     1.9711852525250000     1.9711852525250000
ITEM: TIMESTEP energy, energy_weight, force_weight, nsims
19       -7693.1971746262870511    1    1   99
ITEM: NUMBER OF ATOMS
4         
ITEM: BOX BOUNDS xy xz yz pp pp pp
    0.0000000000000000      3.9573462211967003      0.0000000000000002
    0.0000000000000000      3.9573462211967003      0.0000000000000002
    0.0000000000000000      3.9573462211966999      0.0000000000000002
ITEM: ATOMS id type x y z
1      1          0.0000000000000000     0.0000000000000000     0.0000000000000000
2      1          1.9786731105983499     1.9786731105983499     0.0000000000000000
3      1          1.9786731105983499     0.0000000000000000     1.9786731105983499
4      1          0.0000000000000000     1.9786731105983499     1.9786731105983499
ITEM: TIMESTEP energy, energy_weight, force_weight, nsims
20       -7693.3283324671856462    1    1   99
ITEM: NUMBER OF ATOMS
4         
ITEM: BOX BOUNDS xy xz yz pp pp pp
    0.0000000000000000      3.9722690196185000      0.0000000000000002
    0.0000000000000000      3.9722690196185000      0.0000000000000002
    0.0000000000000000      3.9722690196184995      0.0000000000000002
ITEM: ATOMS id type x y z
1      1          0.0000000000000000     0.0000000000000000     0.0000000000000000
2      1          1.9861345098092498     1.9861345098092498     0.0000000000000000
3      1          1.9861345098092498     0.0000000000000000     1.9861345098092498
4      1          0.0000000000000000     1.9861345098092498     1.9861345098092498
ITEM: TIMESTEP energy, energy_weight, force_weight, nsims
21       -7693.4535051615066550    1    1   99
ITEM: NUMBER OF ATOMS
4         
ITEM: BOX BOUNDS xy xz yz pp pp pp
    0.0000000000000000      3.9871389003154003      0.0000000000000002
    0.0000000000000000      3.9871389003154003      0.0000000000000002
    0.0000000000000000      3.9871389003153999      0.0000000000000002
ITEM: ATOMS id type x y z
1      1          0.0000000000000000     0.0000000000000000     0.0000000000000000
2      1          1.9935694501576999     1.9935694501576999     0.0000000000000000
3      1          1.9935694501576999     0.0000000000000000     1.9935694501576999
4      1          0.0000000000000000     1.9935694501576999     1.9935694501576999
ITEM: TIMESTEP energy, energy_weight, force_weight, nsims
22       -7693.5729147542388091    1    1   99
ITEM: NUMBER OF ATOMS
4         
ITEM: BOX BOUNDS xy xz yz pp pp pp
    0.0000000000000000      4.0019558632874004      0.0000000000000002
    0.0000000000000000      4.0019558632873995      0.0000000000000002
    0.0000000000000000      4.0019558632873995      0.0000000000000002
ITEM: ATOMS id type x y z
1      1          0.0000000000000000     0.0000000000000000     0.0000000000000000
2      1          2.0009779316436997     2.0009779316436997     0.0000000000000000
3      1          2.0009779316436997     0.0000000000000000     2.0009779316436997
4      1          0.0000000000000000     2.0009779316436997     2.0009779316436997
ITEM: TIMESTEP energy, energy_weight, force_weight, nsims
23       -7693.6867616573190389    1    1   99
ITEM: NUMBER OF ATOMS
4         
ITEM: BOX BOUNDS xy xz yz pp pp pp
    0.0000000000000000      4.0167199085345002      0.0000000000000002
    0.0000000000000000      4.0167199085344993      0.0000000000000002
    0.0000000000000000      4.0167199085344993      0.0000000000000002
ITEM: ATOMS id type x y z
1      1          0.0000000000000000     0.0000000000000000     0.0000000000000000
2      1          2.0083599542672497     2.0083599542672497     0.0000000000000000
3      1          2.0083599542672497     0.0000000000000000     2.0083599542672497
4      1          0.0000000000000000     2.0083599542672497     2.0083599542672497
ITEM: TIMESTEP energy, energy_weight, force_weight, nsims
24       -7693.7952405682835888    1    1   99
ITEM: NUMBER OF ATOMS
4         
ITEM: BOX BOUNDS xy xz yz pp pp pp
    0.0000000000000000      4.0314310360567003      0.0000000000000002
    0.0000000000000000      4.0314310360566994      0.0000000000000002
    0.0000000000000000      4.0314310360566994      0.0000000000000002
ITEM: ATOMS id type x y z
1      1          0.0000000000000000     0.0000000000000000     0.0000000000000000
2      1          2.0157155180283497     2.0157155180283497     0.0000000000000000
3      1          2.0157155180283497     0.0000000000000000     2.0157155180283497
4      1          0.0000000000000000     2.0157155180283497     2.0157155180283497
ITEM: TIMESTEP energy, energy_weight, force_weight, nsims
25       -7693.8985362525127130    1    1   99
ITEM: NUMBER OF ATOMS
4         
ITEM: BOX BOUNDS xy xz yz pp pp pp
    0.0000000000000000      4.0460363281291007      0.0000000000000002
    0.0000000000000000      4.0460363281290999      0.0000000000000002
    0.0000000000000000      4.0460363281290999      0.0000000000000002
ITEM: ATOMS id type x y z
1      1          0.0000000000000000     0.0000000000000000     0.0000000000000000
2      1          2.0230181640645499     2.0230181640645499     0.0000000000000000
3      1          2.0230181640645499     0.0000000000000000     2.0230181640645499
4      1          0.0000000000000000     2.0230181640645499     2.0230181640645499
ITEM: TIMESTEP energy, energy_weight, force_weight, nsims
26       -7693.9968308903044090    1    1   99
ITEM: NUMBER OF ATOMS
4         
ITEM: BOX BOUNDS xy xz yz pp pp pp
    0.0000000000000000      4.0606416202015003      0.0000000000000002
    0.0000000000000000      4.0606416202014994      0.0000000000000002
    0.0000000000000000      4.0606416202014994      0.0000000000000002
ITEM: ATOMS id type x y z
1      1          0.0000000000000000     0.0000000000000000     0.0000000000000000
2      1          2.0303208101007497     2.0303208101007497     0.0000000000000000
3      1          2.0303208101007497     0.0000000000000000     2.0303208101007497
4      1          0.0000000000000000     2.0303208101007497     2.0303208101007497
ITEM: TIMESTEP energy, energy_weight, force_weight, nsims
27       -7694.0902895187746253    1    1   99
ITEM: NUMBER OF ATOMS
4         
ITEM: BOX BOUNDS xy xz yz pp pp pp
    0.0000000000000000      4.0751939945490001      0.0000000000000002
    0.0000000000000000      4.0751939945489992      0.0000000000000002
    0.0000000000000000      4.0751939945489992      0.0000000000000002
ITEM: ATOMS id type x y z
1      1          0.0000000000000000     0.0000000000000000     0.0000000000000000
2      1          2.0375969972744996     2.0375969972744996     0.0000000000000000
3      1          2.0375969972744996     0.0000000000000000     2.0375969972744996
4      1          0.0000000000000000     2.0375969972744996     2.0375969972744996
ITEM: TIMESTEP energy, energy_weight, force_weight, nsims
28       -7694.1790845221175914    1    1   99
ITEM: NUMBER OF ATOMS
4         
ITEM: BOX BOUNDS xy xz yz pp pp pp
    0.0000000000000000      4.0896934511716001      0.0000000000000003
    0.0000000000000000      4.0896934511715992      0.0000000000000003
    0.0000000000000000      4.0896934511715992      0.0000000000000003
ITEM: ATOMS id type x y z
1      1          0.0000000000000000     0.0000000000000000     0.0000000000000000
2      1          2.0448467255857996     2.0448467255857996     0.0000000000000000
3      1          2.0448467255857996     0.0000000000000000     2.0448467255857996
4      1          0.0000000000000000     2.0448467255857996     2.0448467255857996
ITEM: TIMESTEP energy, energy_weight, force_weight, nsims
29       -7694.2633703250103281    1    1   99
ITEM: NUMBER OF ATOMS
4         
ITEM: BOX BOUNDS xy xz yz pp pp pp
    0.0000000000000000      4.1041399900693003      0.0000000000000003
    0.0000000000000000      4.1041399900692994      0.0000000000000003
    0.0000000000000000      4.1041399900692994      0.0000000000000003
ITEM: ATOMS id type x y z
1      1          0.0000000000000000     0.0000000000000000     0.0000000000000000
2      1          2.0520699950346497     2.0520699950346497     0.0000000000000000
3      1          2.0520699950346497     0.0000000000000000     2.0520699950346497
4      1          0.0000000000000000     2.0520699950346497     2.0520699950346497
ITEM: TIMESTEP energy, energy_weight, force_weight, nsims
30       -7694.3433069304583114    1    1   99
ITEM: NUMBER OF ATOMS
4         
ITEM: BOX BOUNDS xy xz yz pp pp pp
    0.0000000000000000      4.1185336112421007      0.0000000000000003
    0.0000000000000000      4.1185336112420998      0.0000000000000003
    0.0000000000000000      4.1185336112420998      0.0000000000000003
ITEM: ATOMS id type x y z
1      1          0.0000000000000000     0.0000000000000000     0.0000000000000000
2      1          2.0592668056210499     2.0592668056210499     0.0000000000000000
3      1          2.0592668056210499     0.0000000000000000     2.0592668056210499
4      1          0.0000000000000000     2.0592668056210499     2.0592668056210499
ITEM: TIMESTEP energy, energy_weight, force_weight, nsims
31       -7694.4190405997160269    1    1   99
ITEM: NUMBER OF ATOMS
4         
ITEM: BOX BOUNDS xy xz yz pp pp pp
    0.0000000000000000      4.1328743146900004      0.0000000000000003
    0.0000000000000000      4.1328743146899996      0.0000000000000003
    0.0000000000000000      4.1328743146899996      0.0000000000000003
ITEM: ATOMS id type x y z
1      1          0.0000000000000000     0.0000000000000000     0.0000000000000000
2      1          2.0664371573449998     2.0664371573449998     0.0000000000000000
3      1          2.0664371573449998     0.0000000000000000     2.0664371573449998
4      1          0.0000000000000000     2.0664371573449998     2.0664371573449998
ITEM: TIMESTEP energy, energy_weight, force_weight, nsims
32       -7694.4907248050585622    1    1   99
ITEM: NUMBER OF ATOMS
4         
ITEM: BOX BOUNDS xy xz yz pp pp pp
    0.0000000000000000      4.1471621004130004      0.0000000000000003
    0.0000000000000000      4.1471621004129995      0.0000000000000003
    0.0000000000000000      4.1471621004129995      0.0000000000000003
ITEM: ATOMS id type x y z
1      1          0.0000000000000000     0.0000000000000000     0.0000000000000000
2      1          2.0735810502064997     2.0735810502064997     0.0000000000000000
3      1          2.0735810502064997     0.0000000000000000     2.0735810502064997
4      1          0.0000000000000000     2.0735810502064997     2.0735810502064997
ITEM: TIMESTEP energy, energy_weight, force_weight, nsims
33       -7694.5584909775298001    1    1   99
ITEM: NUMBER OF ATOMS
4         
ITEM: BOX BOUNDS xy xz yz pp pp pp
    0.0000000000000000      4.1613969684111005      0.0000000000000003
    0.0000000000000000      4.1613969684110996      0.0000000000000003
    0.0000000000000000      4.1613969684110996      0.0000000000000003
ITEM: ATOMS id type x y z
1      1          0.0000000000000000     0.0000000000000000     0.0000000000000000
2      1          2.0806984842055498     2.0806984842055498     0.0000000000000000
3      1          2.0806984842055498     0.0000000000000000     2.0806984842055498
4      1          0.0000000000000000     2.0806984842055498     2.0806984842055498
ITEM: TIMESTEP energy, energy_weight, force_weight, nsims
34       -7694.6224715005710095    1    1   99
ITEM: NUMBER OF ATOMS
4         
ITEM: BOX BOUNDS xy xz yz pp pp pp
    0.0000000000000000      4.1755789186843009      0.0000000000000003
    0.0000000000000000      4.1755789186843000      0.0000000000000003
    0.0000000000000000      4.1755789186843000      0.0000000000000003
ITEM: ATOMS id type x y z
1      1          0.0000000000000000     0.0000000000000000     0.0000000000000000
2      1          2.0877894593421500     2.0877894593421500     0.0000000000000000
3      1          2.0877894593421500     0.0000000000000000     2.0877894593421500
4      1          0.0000000000000000     2.0877894593421500     2.0877894593421500
ITEM: TIMESTEP energy, energy_weight, force_weight, nsims
35       -7694.6828006624209593    1    1   99
ITEM: NUMBER OF ATOMS
4         
ITEM: BOX BOUNDS xy xz yz pp pp pp
    0.0000000000000000      4.1897608689575012      0.0000000000000003
    0.0000000000000000      4.1897608689575003      0.0000000000000003
    0.0000000000000000      4.1897608689575003      0.0000000000000003
ITEM: ATOMS id type x y z
1      1          0.0000000000000000     0.0000000000000000     0.0000000000000000
2      1          2.0948804344787502     2.0948804344787502     0.0000000000000000
3      1          2.0948804344787502     0.0000000000000000     2.0948804344787502
4      1          0.0000000000000000     2.0948804344787502     2.0948804344787502
ITEM: TIMESTEP energy, energy_weight, force_weight, nsims
36       -7694.7395950639147486    1    1   99
ITEM: NUMBER OF ATOMS
4         
ITEM: BOX BOUNDS xy xz yz pp pp pp
    0.0000000000000000      4.2038369837809002      0.0000000000000003
    0.0000000000000000      4.2038369837808993      0.0000000000000003
    0.0000000000000000      4.2038369837808993      0.0000000000000003
ITEM: ATOMS id type x y z
1      1          0.0000000000000000     0.0000000000000000     0.0000000000000000
2      1          2.1019184918904497     2.1019184918904497     0.0000000000000000
3      1          2.1019184918904497     0.0000000000000000     2.1019184918904497
4      1          0.0000000000000000     2.1019184918904497     2.1019184918904497
ITEM: TIMESTEP energy, energy_weight, force_weight, nsims
37       -7694.7929775645034169    1    1   99
ITEM: NUMBER OF ATOMS
4         
ITEM: BOX BOUNDS xy xz yz pp pp pp
    0.0000000000000000      4.2179130986043001      0.0000000000000003
    0.0000000000000000      4.2179130986042992      0.0000000000000003
    0.0000000000000000      4.2179130986042992      0.0000000000000003
ITEM: ATOMS id type x y z
1      1          0.0000000000000000     0.0000000000000000     0.0000000000000000
2      1          2.1089565493021496     2.1089565493021496     0.0000000000000000
3      1          2.1089565493021496     0.0000000000000000     2.1089565493021496
4      1          0.0000000000000000     2.1089565493021496     2.1089565493021496
ITEM: TIMESTEP energy, energy_weight, force_weight, nsims
38       -7694.8430600030278583    1    1   99
ITEM: NUMBER OF ATOMS
4         
ITEM: BOX BOUNDS xy xz yz pp pp pp
    0.0000000000000000      4.2318833779779004      0.0000000000000003
    0.0000000000000000      4.2318833779778995      0.0000000000000003
    0.0000000000000000      4.2318833779778995      0.0000000000000003
ITEM: ATOMS id type x y z
1      1          0.0000000000000000     0.0000000000000000     0.0000000000000000
2      1          2.1159416889889497     2.1159416889889497     0.0000000000000000
3      1          2.1159416889889497     0.0000000000000000     2.1159416889889497
4      1          0.0000000000000000     2.1159416889889497     2.1159416889889497
ITEM: TIMESTEP energy, energy_weight, force_weight, nsims
39       -7694.8899618375144200    1    1   99
ITEM: NUMBER OF ATOMS
4         
ITEM: BOX BOUNDS xy xz yz pp pp pp
    0.0000000000000000      4.2458536573515007      0.0000000000000003
    0.0000000000000000      4.2458536573514998      0.0000000000000003
    0.0000000000000000      4.2458536573514998      0.0000000000000003
ITEM: ATOMS id type x y z
1      1          0.0000000000000000     0.0000000000000000     0.0000000000000000
2      1          2.1229268286757499     2.1229268286757499     0.0000000000000000
3      1          2.1229268286757499     0.0000000000000000     2.1229268286757499
4      1          0.0000000000000000     2.1229268286757499     2.1229268286757499
ITEM: TIMESTEP energy, energy_weight, force_weight, nsims
40       -7694.9337785799643825    1    1   99
ITEM: NUMBER OF ATOMS
4         
ITEM: BOX BOUNDS xy xz yz pp pp pp
    0.0000000000000000      4.2597710190002003      0.0000000000000003
    0.0000000000000000      4.2597710190001994      0.0000000000000003
    0.0000000000000000      4.2597710190001994      0.0000000000000003
ITEM: ATOMS id type x y z
1      1          0.0000000000000000     0.0000000000000000     0.0000000000000000
2      1          2.1298855095000997     2.1298855095000997     0.0000000000000000
3      1          2.1298855095000997     0.0000000000000000     2.1298855095000997
4      1          0.0000000000000000     2.1298855095000997     2.1298855095000997
ITEM: TIMESTEP energy, energy_weight, force_weight, nsims
41       -7694.9746227495015773    1    1   99
ITEM: NUMBER OF ATOMS
4         
ITEM: BOX BOUNDS xy xz yz pp pp pp