ITEM: TIMESTEP energy, energy_weight, force_weight, nsims
1        -103883.5312615284638014    1    1   300
ITEM: NUMBER OF ATOMS
54        
ITEM: BOX BOUNDS xy xz yz pp pp pp
   -0.1815386844830243     10.4009788290949992     -0.0907693422415120
   -0.0915598166325223     10.4005835918994975     -0.0907693422415123
    0.0000000000000000     10.4001779537251622     -0.0915598166325223
ITEM: ATOMS id type x y z
1      1          0.0511457732941918    -0.0157918061562149     0.0794915608971243
2      1          1.6338044762361348     1.7689776772948196     1.7596636007533650
3      1         -0.0672496088152795    -0.0803954059573727     3.3947879612029115
4      1          1.6379690281593045     1.7592735640472736     5.1305542729985483
5      1         -0.0607448366555635    -0.1339739681996898     6.9284976362345150
6      1          1.7175604384531880     1.5939489654609258     8.6949478756738632
7      1          0.0289958487797510     3.4154089418294760     0.0403339558013475
8      1          1.6911429923251700     5.2673437861672747     1.7350351229839507
9      1         -0.0163649000896981     3.5075512132764284     3.3980684299256088
10     1          1.6194022408514872     5.1365566778808187     5.2715925860189587
11     1         -0.0310583628815606     3.4307982301050046     6.9138104140299497
12     1          1.6249844461890626     5.0475003768524589     8.7480261508344999
13     1          0.0054293109487876     6.9080992365548930     0.0748839272758353
14     1          1.6054233253051835     8.6997624887738514     1.6780835233073583
15     1         -0.1534570817423505     6.8547963002515466     3.5398680945963092
16     1          1.6838425452850281     8.5979837104417420     5.1261577792474897
17     1         -0.0566416505074855     6.7969928604088521     6.9695232571279968
18     1          1.5632140730209503     8.5633359697662605     8.7421651992643064
19     1          3.3911361775360169    -0.0497145986073083    -0.0213864926683851
20     1          5.1598465496749286     1.7540543528708337     1.7196759975470262
21     1          3.4310728159460928    -0.0426658552548306     3.5209840774342047
22     1          5.0958576477225694     1.6264863475319835     5.2189573925564412
23     1          3.4546050305469200    -0.1341476645461357     6.9325280155307887
24     1          5.1254889963087784     1.5929473511996841     8.6072364212081052
25     1          3.4117602784562293     3.5442697888367820     0.0383723311941802
26     1          5.1947678360936154     5.2629628938844597     1.7672739969626134
27     1          3.3388431762769755     3.5088731776856061     3.4435186272129878
28     1          5.1604414856639522     5.2355729562359201     5.2794390844476293
29     1          3.3069766573403947     3.3705411993565257     6.8898392781225342
30     1          5.1088609514547043     5.1249096617879983     8.6524806791146691
31     1          3.3981017130578612     6.8898860825272656     0.0050319935575162
32     1          5.1772692293115457     8.7171310833205577     1.6973419757073103
33     1          3.4008891753840591     6.9671601547380266     3.4592958719988416
34     1          5.0605723270448655     8.6635088369671571     5.1589458249083284
35     1          3.3839314195011028     6.8118641799386914     6.9888149926602017
36     1          4.9707557144640981     8.5843095435751309     8.7006673739319815
37     1          6.8970731588981691    -0.0789309481382361    -0.0688638407295551
38     1          8.6673353570783824     1.7851761617232520     1.7075453359386528
39     1          6.9319746834570815    -0.0303417354402359     3.4061479102800494
40     1          8.5739002439629726     1.7327926719483979     5.1416042729065792
41     1          6.8276455851160769    -0.0151760682095325     7.0015801139771492
42     1          8.6176644425821571     1.6194116017324334     8.6188875976924582
43     1          6.8602786561923628     3.5166479093603549     0.0630860969899928
44     1          8.5935071291536982     5.1887394287642712     1.6981740540136381
45     1          6.7981411284715838     3.3593227035914635     3.5218348775024246
46     1          8.5833984178297023     5.1383664481970817     5.2472574158525260
47     1          6.8103893211407254     3.3451243273918663     6.8742783736963240
48     1          8.4834294098138550     5.0962352032540661     8.6725223252204504
49     1          6.8092587347420039     6.8839055197005363    -0.0375194509301944
50     1          8.5801002674429974     8.7280281888398008     1.6855483058129996
51     1          6.8894440409270281     6.8903302043232673     3.4840522818078536
52     1          8.4699268590979262     8.6117930900331316     5.2790469675457716
53     1          6.7385747227173569     6.9027000884447105     6.9649395457580150
54     1          8.4923534496492188     8.5372950390718554     8.7273448445307267
ITEM: TIMESTEP energy, energy_weight, force_weight, nsims
2        -103883.7167729086067993    1    1   300
ITEM: NUMBER OF ATOMS
54        
ITEM: BOX BOUNDS xy xz yz pp pp pp
   -0.1452184664118249     10.4009788290949992     -0.0726092332059124
   -0.0731188811685374     10.4007292056031009     -0.0726092332059125
    0.0000000000000000     10.4004691811323742     -0.0731188811685374
ITEM: ATOMS id type x y z
1      1         -0.0731251217558353    -0.0333444980281957     0.0366717711556232
2      1          1.7137984044107046     1.7912960976662915     1.7512221663356711
3      1          0.0519778516005193     0.0298726512950437     3.5353207866522292
4      1          1.7320895657795510     1.6999432605124671     5.2084586445263525
5      1         -0.1294890661285840    -0.0960291172353854     6.9506735631960277
6      1          1.6919948324912726     1.7083368504275467     8.6278522013452541
7      1         -0.0884655254308675     3.4031399472026753    -0.0229913637017145
8      1          1.7325700910014552     5.1381948320464010     1.6653870484506816
9      1         -0.0743181140275325     3.4166747409529767     3.4527786186645311
10     1          1.6976924886938509     5.1332834898433024     5.2748855359162503
11     1         -0.0137594548930098     3.4468469404382982     6.8782546679026879
12     1          1.5767353454987736     5.1467829202655846     8.7402087751465540
13     1         -0.0036684252330218     7.0079465531184386    -0.0017920886522531
14     1          1.5938896798816000     8.6623844911557324     1.6993743269705157
15     1         -0.0173935568958956     6.9124874095228881     3.4720485121411953
16     1          1.7184684439049682     8.6979516783597060     5.2430013353156601
17     1         -0.0978773711733156     6.8243172718907674     6.9467555144711071
18     1          1.6870533274495696     8.6498138681428891     8.6338618869127064
19     1          3.4451401398124433     0.0369109936686923    -0.0013458866604849
20     1          5.1147551861571525     1.7438197897030043     1.7080237809647909
21     1          3.4781934104334242    -0.0740528890673906     3.5016777805316388
22     1          5.1330473876238827     1.7034036661689071     5.1651021642772692
23     1          3.4089946581855730    -0.0653940741921690     7.0027855874234426
24     1          5.1390269103527286     1.6490200681652181     8.6930736192888602
25     1          3.5171804394764044     3.3935315229603575    -0.0768590731554804
26     1          5.1495142173061055     5.2388846278951036     1.7887780206917674
27     1          3.3547972377029245     3.4145019764755782     3.5484884258498632
28     1          5.0974001128829247     5.2417074535493207     5.2389751164109173
29     1          3.4346881961870861     3.3925954348657386     6.8698132334849946
30     1          5.0691427336000396     5.1691429445523731     8.6304066817456793
31     1          3.3386986026712515     6.9353685228490152     0.0111373681301949
32     1          5.1175426484833508     8.6144911039413987     1.7024540568018105
33     1          3.3532131686272537     6.9242966808854431     3.5297521025871310
34     1          5.1319989689579089     8.5990269286183008     5.1692043103274656
35     1          3.3766392932440241     6.8798688998169641     6.9095231305565967
36     1          5.0894787274066857     8.6396365103586188     8.6511160706922929
37     1          6.9387363597938752    -0.0306028000088462     0.0504447473211107
38     1          8.7105087801000725     1.6948280591243181     1.7935562303658539
39     1          6.8500752959610205    -0.0466598311252031     3.4215039154233255
40     1          8.6399246174721860     1.7510879937087760     5.1664522113292861
41     1          6.8927910759142312    -0.0437974817514361     6.9498591665537095
42     1          8.5836501215173673     1.7411706603952339     8.6403292155486380
43     1          6.9160008601713558     3.4912112755359201     0.0289844077030390
44     1          8.6675922612554608     5.2368657979043771     1.7654964696807214
45     1          6.9384388917993629     3.3930291556829117     3.4689448600585933
46     1          8.6386421767825574     5.1863648852975883     5.1796884969871932
47     1          6.8992833668993514     3.5012804631403665     6.8714409866717476
48     1          8.6536299872752824     5.1044467760396364     8.6208211396567851
49     1          6.8348316213890996     6.9774456827021174    -0.0485985735789464
50     1          8.6575938003070512     8.7082767300433481     1.7977093412123115
51     1          6.9253170169085774     6.9609996549775532     3.4786364921315442
52     1          8.5640484368160532     8.6841755819005702     5.2448433486662926
53     1          6.8178239408077630     6.9586791966007810     6.9083363788721970
54     1          8.4687785910351927     8.5275295600492189     8.6817344721693814
ITEM: TIMESTEP energy, energy_weight, force_weight, nsims
3        -103883.4689120565017220    1    1   300
ITEM: NUMBER OF ATOMS
54        
ITEM: BOX BOUNDS xy xz yz pp pp pp
   -0.1089190502982826     10.4009788290949992     -0.0544595251491409
   -0.0547403515775267     10.4008332153913940     -0.0544595251491417
    0.0000000000000000     10.4006876016877854     -0.0547403515775267
ITEM: ATOMS id type x y z
1      1          0.0706143254664918     0.0215747503851918    -0.0663811270830501
2      1          1.6348996993068385     1.6847151874087893     1.7191445075288594
3      1         -0.0559853487433697    -0.0531635631870362     3.5391670686232284
4      1          1.6260994311195416     1.7885658407236540     5.1721810704683522
5      1         -0.0302543672180715    -0.0728536562083959     6.9651319638663516
6      1          1.6500237626222258     1.6694631920538041     8.5979400263306616
7      1         -0.0214790613799641     3.4717416832657366     0.0597702649392773
8      1          1.7761512323932462     5.1177652294302929     1.7301102595083742
9      1         -0.0156233102991836     3.3967131823841776     3.3877933029403455
10     1          1.6142766384845089     5.1749248486834665     5.1358733335717472
11     1         -0.0290322522056529     3.4702241804545721     6.9065297288495824
12     1          1.5803777682847227     5.0994563863974367     8.5964485259665668
13     1         -0.0937024182713169     6.9062551430084946    -0.0496469922449192
14     1          1.7328925213451571     8.5909890521791770     1.7046445029432180
15     1         -0.0802061081426832     6.9729815825886696     3.4491330755849336
16     1          1.6861016378867075     8.5604788208819098     5.1601991428572349
17     1         -0.0509034304874738     6.8659159867177335     6.9688856771257726
18     1          1.7041338148827094     8.6684992266093577     8.7201203246360386
19     1          3.4480004089904446    -0.0687223874174794    -0.0108419803314486
20     1          5.1204601230449116     1.6492000050989615     1.7875371839174563
21     1          3.4784253522613140     0.0630101698445404     3.3920015389745974
22     1          5.1203529929629710     1.7632727404070609     5.2509684850987455
23     1          3.4387726605732714     0.0083415850209342     6.8975724058819656
24     1          5.1619589884751171     1.7274996138222714     8.5916609554115357
25     1          3.4780769194705390     3.4954371932341814    -0.0564367512245524
26     1          5.2381617598664816     5.1880321622038927     1.8147690266877934
27     1          3.3714523251019539     3.5026367507796810     3.4065535484543843
28     1          5.0796851657412105     5.1455462438828050     5.2826488265142872
29     1          3.4120088618502442     3.4939768958065764     6.9468844866085879
30     1          5.0605172018570705     5.2027682690089545     8.6061661604865911
31     1          3.5102398663037491     6.8853959799667441    -0.0637070354260898
32     1          5.1962874191005453     8.7385331774571853     1.7811031384137783
33     1          3.3919152108503159     6.9640804249067312     3.5172844492646953
34     1          5.1755832306433485     8.6393380022662249     5.2798582438944415
35     1          3.3546173007691813     6.9422414896592803     6.9480753986845194
36     1          5.0698052759514525     8.5845882898077512     8.5931805384184656
37     1          6.8786228625532377     0.0309605936805671    -0.0096479479618685
38     1          8.7088446234874155     1.6599670983828403     1.7712190882324892
39     1          6.9061500931223199     0.0167143729783557     3.5257955702405437
40     1          8.6422918802536870     1.7133085183078542     5.2188585832575640
41     1          6.8918185843937110     0.0207229102190889     6.9645089452344893
42     1          8.6775272762330111     1.7518961497637966     8.6749166305469103
43     1          6.9386729138230177     3.5473120751442928    -0.0222206511704786
44     1          8.6269088325654550     5.1630729333077143     1.7631604098357065
45     1          6.9730606300277707     3.3805698231435386     3.4562317436357910
46     1          8.6656035941033380     5.2111660193155656     5.1748811645723842
47     1          6.9442696805309536     3.3823681523830897     6.9985107851246839
48     1          8.5276086074883199     5.2191664522309056     8.6663659858515114
49     1          6.9111373624708712     6.8646876311180165    -0.0783952977285377
50     1          8.5345377395842643     8.6478709652976136     1.8160473069858887
51     1          6.9459816816462228     6.9984379782728796     3.4408424553602615
52     1          8.5408615347123522     8.5888745331832226     5.2296776814355894
53     1          6.7978499010643700     6.9766801706602966     7.0090854603002244
54     1          8.6070606446658928     8.5517773619934871     8.6818457626428529
ITEM: TIMESTEP energy, energy_weight, force_weight, nsims
4        -103883.5696101408539107    1    1   300
ITEM: NUMBER OF ATOMS
54        
ITEM: BOX BOUNDS xy xz yz pp pp pp
   -0.0726196341847389     10.4009788290949992     -0.0363098170923698
   -0.0364346288383190     10.4009164232220286     -0.0363098170923691
    0.0000000000000000     10.4008540173490491     -0.0364346288383190
ITEM: ATOMS id type x y z
1      1          0.0830996604529374    -0.0107941358288348    -0.0628052705616072
2      1          1.6850407380461399     1.7418592051937201     1.7176041225642704
3      1         -0.0883625557404595     0.0399303978227786     3.4787498628007811
4      1          1.6887341256283517     1.7509246983411593     5.1245071439073122
5      1          0.0433055154528199    -0.0369921213035593     7.0060650160482565
6      1          1.7492657422179185     1.7071126552193623     8.5886259497892059
7      1          0.0068417638737787     3.4157303320752943     0.0069956983604493
8      1          1.7871877110287988     5.1783842142420244     1.7903870521166285
9      1         -0.0694722979910572     3.5162349905008403     3.4689646219183685
10     1          1.6239256265442605     5.1266071015329064     5.1606172622061646
11     1         -0.0007665521397043     3.4244515528234909     7.0017725320854884
12     1          1.7054609797813021     5.2493469724992909     8.6629919083193521
13     1          0.0246763222720279     6.8868521170028183     0.0604931329678994
14     1          1.7034327889096286     8.5806265569717493     1.6556486119730001
15     1         -0.0429924459900642     6.9153882425183228     3.5239119529745948
16     1          1.7165203405702789     8.7272761980704576     5.2519430568150334
17     1         -0.0830330941884312     6.9470925061851707     6.8573403796731442
18     1          1.6487309209537691     8.5851062585534397     8.6667352205999446
19     1          3.4241457640459156     0.0015216632026966    -0.0683063482643156
20     1          5.2703382279721707     1.7437012185443530     1.7221056662015028
21     1          3.4917261239879602     0.0308846665351147     3.4181527200445907
22     1          5.1289535623567506     1.7828775454020220     5.1226744914376257
23     1          3.4259440932854659    -0.0004014777828031     6.9750898609973282
24     1          5.1531660009730000     1.6369299703742781     8.7005467225775650
25     1          3.3885744164504108     3.3901980092456325    -0.0280399988253572
26     1          5.2018425818931648     5.1286363325024631     1.7376384879848732
27     1          3.4779063434177413     3.4846711400481851     3.5033044936205089
28     1          5.1849014675763350     5.2200609364102082     5.2449525589439974
29     1          3.4903677561528808     3.3788151780150706     6.9977057493633126
30     1          5.1489504842535680     5.2186692854428758     8.6737402798413381
31     1          3.5142983282428624     6.9064059572015166    -0.0127776024915432
32     1          5.1014460936474428     8.6035752766602620     1.6543360084447685
33     1          3.4987072609780481     6.9705955980452767     3.5343264530761673
34     1          5.1861142217078076     8.5978484977169636     5.1333812590442962
35     1          3.3648466634475960     6.8420259784451840     7.0050935646256187
36     1          5.1290669330259870     8.6604738313448273     8.6800484735011842
37     1          6.9112933771533083     0.0634667728151377    -0.0795466860849185
38     1          8.5808647393869339     1.6552752168330360     1.7059311040243772
39     1          6.9135285475036801     0.0314754421326073     3.4369951332913793
40     1          8.6378017776931681     1.7436065696370078     5.1312698603419893
41     1          6.8791106684603216    -0.1011079151976325     6.9149222786667801
42     1          8.6332794320982771     1.6905043722250634     8.7230596412531405
43     1          6.9832400680078068     3.5106663064357422    -0.0416527999168767
44     1          8.6672594299329297     5.2183270932393979     1.7030105091691674
45     1          6.8948192667859036     3.5023195209253934     3.4872464224062689
46     1          8.5679519241706146     5.1389187401729055     5.1330432272323501
47     1          6.9358147248407827     3.3895053040556142     6.9401342513485051
48     1          8.5712594354382645     5.1435263737941952     8.6012672994580868
49     1          6.8544801104951425     6.9891436635912001     0.0511010490852266
50     1          8.6167314747811847     8.5903889157007374     1.7539825861169129
51     1          6.8299025975219907     6.8489259878004054     3.4454032845768197
52     1          8.6056336303705425     8.6030635485018720     5.2154678641592804
53     1          6.8824753851115350     6.9479901106581208     6.8780196057811507
54     1          8.5400544187552150     8.6784228005101962     8.7502342786399172
ITEM: TIMESTEP energy, energy_weight, force_weight, nsims
5        -103883.5453383918502368    1    1   300
ITEM: NUMBER OF ATOMS
54        
ITEM: BOX BOUNDS xy xz yz pp pp pp
   -0.0362994161135416     10.4009788290949992     -0.0181497080567706
   -0.0181809109932565     10.4009580271373423     -0.0181497080567710
    0.0000000000000000     10.4009476261585103     -0.0181809109932565
ITEM: ATOMS id type x y z
1      1          0.0150803792043048     0.0596454531933282    -0.0006999858751981
2      1          1.8019623014555284     1.6513665289890618     1.8086802936812407
3      1         -0.0719955754549956    -0.0675262748521335     3.4543439659783095
4      1          1.7544475098705736     1.7852812116094259     5.2129789099254777
5      1         -0.0693443659514593     0.0034936887886930     6.9025378331749767
6      1          1.7751444176425897     1.7792996086848134     8.6357455041786544
7      1          0.0462801953979411     3.4808581412094388    -0.0642676481849780
8      1          1.6487465224220128     5.2580848348136131     1.6651811090698658
9      1          0.0217609279062326     3.5208987894078061     3.4344916176872164
10     1          1.7166212300649211     5.1471895985378024     5.1994066726513912
11     1          0.0148973219769128     3.4745374663749979     6.9247241611153187
12     1          1.7131327417656423     5.1308569414824747     8.5859882615581462
13     1          0.0318405164895085     6.8660511994425102    -0.0372927095917201
14     1          1.7838968413272736     8.6814578061325260     1.7633736299017031
15     1         -0.0080285155581784     6.8793873344971761     3.5365189794133403
16     1          1.7675891466211353     8.6636690120411259     5.1973899228564298
17     1         -0.0306662459797037     6.8844962952980282     7.0090750593213969
18     1          1.7320157188298644     8.6012184148575912     8.5906312585074538
19     1          3.4173955287858329     0.0698852168505722    -0.0180571393451918
20     1          5.2080821290927393     1.7732108756782610     1.6950350386030173
21     1          3.5263020979095208     0.0273805767675926     3.4240947992496529
22     1          5.2435629881724308     1.7130006493345131     5.1225049554827118
23     1          3.4432970863639278     0.0241500327432757     6.9175859693449109
24     1          5.2633030058921708     1.7729893348292014     8.6287914097335214
25     1          3.4069924697609717     3.4217920225368914    -0.0754497405241380
26     1          5.1352555154292991     5.2731870560734597     1.6974990304876301
27     1          3.4478090309799891     3.3932912603494052     3.4009359797887901
28     1          5.2085189702035617     5.1282005314895232     5.1601783408995763
29     1          3.5145146686025073     3.4844974437017391     6.9658090675881263
30     1          5.1960117931615750     5.2378642918719693     8.7350280475917792
31     1          3.5003818185695330     6.9229539145186063    -0.0751210695931386
32     1          5.1239163683098194     8.7042588319216687     1.6914050969916632
33     1          3.3884932888155439     6.9590401105661517     3.4140713759520542
34     1          5.1370642456476787     8.5974990248283056     5.1808274041689790
35     1          3.4552592521152699     6.9518384728248863     6.8904300537200269
36     1          5.1874601083682927     8.6468963935813274     8.6349352679278688
37     1          6.9879527515152704     0.0316730607303601    -0.0432836733972788
38     1          8.6979568788491211     1.8113845481768058     1.7159815698669316
39     1          6.8871984695978270     0.0519424882725004     3.4695335554603197
40     1          8.7226633639597519     1.7380493266486223     5.1957507285929649
41     1          6.9657196191701960    -0.0531833250468115     6.8665390053495958
42     1          8.5924077456914638     1.7546097651403074     8.7324943691490127
43     1          6.9633180331585587     3.4384585510126331     0.0163659401875810
44     1          8.6159368399986445     5.2721875220079841     1.7801368874805554
45     1          6.8735711071359464     3.4399978958793391     3.3896758801084115
46     1          8.5736579011562544     5.1351920694584416     5.1332294047533917
47     1          6.9364023801446262     3.3720410205036808     6.9564856301657256
48     1          8.7038251111044964     5.2451761799888237     8.6376135199763606
49     1          6.9851788104615498     6.9095938572126343    -0.0676760489472724
50     1          8.7246967553208403     8.7474197737687653     1.6855555864981799
51     1          6.9481097219146548     6.8691496510356984     3.4378646551214920
52     1          8.6345753940603807     8.6490254739476438     5.2750072273685511
53     1          6.9503906565718765     6.9253659015090729     7.0050145171865177
54     1          8.5855025358468282     8.5713530442477293     8.6390082912373423
ITEM: TIMESTEP energy, energy_weight, force_weight, nsims
6        -103883.5282375259994296    1    1   300
ITEM: NUMBER OF ATOMS
54        
ITEM: BOX BOUNDS xy xz yz pp pp pp
    0.0000000000000000     10.4009788290950009      0.0000000000000006
    0.0000000000000000     10.4009788290949992      0.0000000000000006
    0.0000000000000000     10.4009788290949992      0.0000000000000006
ITEM: ATOMS id type x y z
1      1          0.0524240535922875    -0.0235041319579889     0.0758668197751848
2      1          1.8138672618233103     1.6533863990776723     1.7214067204241876
3      1          0.0706299269347354    -0.0292787554039024     3.4621977450921593
4      1          1.8155782228406967     1.8162501260730561     5.2674249138021416
5      1          0.0776963519512226    -0.0393957875109631     6.9124447655096883
6      1          1.8159297759251201     1.6892125706544898     8.7367556501752937
7      1         -0.0682189800421512     3.4727276960587350    -0.0304280635645174
8      1          1.7816543902917203     5.2397312675717922     1.7887696999087042
9      1         -0.0120640953438673     3.4574060141455951     3.4763898807044593
10     1          1.7940055526512708     5.2830679859610994     5.1827307832947023
11     1          0.0158198887990535     3.4574985828571747     6.9687806272395987
12     1          1.6875151309095815     5.1256990960811262     8.7090765653153053
13     1          0.0291237808193489     6.9434521635949862     0.0450112759807915
14     1          1.7111201523622128     8.6441411742894996     1.7741563246538259
15     1          0.0390650363841979     6.9308388965689440     3.4375339039947264
16     1          1.6545679502726571     8.7190635851870031     5.1631675822150589
17     1         -0.0287763881264571     6.9044100093642129     6.9790786363782864
18     1          1.7906626780555996     8.6546222406555788     8.7451960444951045
19     1          3.4938031994601308    -0.0225129186755761    -0.0504416270274620
20     1          5.2333461066686118     1.7061963289845190     1.7652052422735069
21     1          3.4724229473790431    -0.0540580473663383     3.3933151826007117
22     1          5.2611624844491427     1.6871354951823194     5.2054101176315450
23     1          3.4884570963419756     0.0377420318771370     6.9262406238286012
24     1          5.1935488413748452     1.6828502919047323     8.7371207245321951
25     1          3.4460679071239992     3.4775121463201191     0.0727194835815006
26     1          5.2266073124852399     5.2294124564754467     1.7478907328167119
27     1          3.4462956885603564     3.5100828115234299     3.4269488278403566
28     1          5.1355425824449830     5.1176424978801096     5.2766869854494498
29     1          3.4889937868495569     3.4934058820688594     6.9334911461703630
30     1          5.1524108899100085     5.1647027666902323     8.6580972076823794
31     1          3.4539809718171748     6.9264684052649583     0.0675449966140258
32     1          5.1842410054206871     8.7097058245344670     1.6599182137823438
33     1          3.5287036839211590     6.8818690080457978     3.5196298699906556
34     1          5.1616948036128587     8.7064274360075355     5.2673333851884454
35     1          3.4511903891973281     6.9787614065239980     6.9148713138705169
36     1          5.1991799313129166     8.7075840248533307     8.7322093823290974
37     1          6.8639606026978619    -0.0661325436890347    -0.0100411049616083
38     1          8.7360983083132933     1.7967971753690000     1.6693290194269090
39     1          6.8561505076950944    -0.0372355042081601     3.5432452924221161
40     1          8.6409043896778872     1.7165453029194684     5.1646049974892394
41     1          6.9131593127552478    -0.0278434203254873     6.8531227827579455
42     1          8.6586599006370335     1.7643908456311885     8.6247672710245435
43     1          6.8546735687013634     3.4669177092848029    -0.0435457780637720
44     1          8.6189832866976861     5.1586774796545374     1.6729454397657852
45     1          7.0074826694626617     3.4627677187319934     3.4272005315280207
46     1          8.6220370140819078     5.1197955004977329     5.2765933766399886
47     1          7.0150785043015489     3.4117186745409125     6.9982611616327857
48     1          8.6408222219451361     5.1726979991161581     8.7320648087233721
49     1          6.9186635107516041     6.9354486103859987     0.0675834802356935
50     1          8.6495902470980628     8.7251793607385100     1.6631601988833726
51     1          6.9170815218717001     6.8920921301369162     3.4422861112217404
52     1          8.5852383509845680     8.6331754223099857     5.2402689981772559
53     1          6.9731292764880441     6.9719362842163468     6.9173581879085528
54     1          8.6358432733796491     8.7004999181728344     8.6679438143398837
ITEM: TIMESTEP energy, energy_weight, force_weight, nsims
7        -103883.5827292991598370    1    1   300
ITEM: NUMBER OF ATOMS
54        
ITEM: BOX BOUNDS xy xz yz pp pp pp
    0.0000000000000000     10.4372782452085424      0.0181497080567719
    0.0000000000000000     10.4190765322576251      0.0181497080567710
    0.0000000000000000     10.4009476261585121      0.0181185051202832
ITEM: ATOMS id type x y z
1      1         -0.0486786611159304     0.0048135730021052    -0.0037225103229331
2      1          1.7843087200889056     1.7780878946512235     1.6648337163769740