ITEM: TIMESTEP energy, energy_weight, force_weight, nsims
1        -61559.3273844565774198    1    1   300
ITEM: NUMBER OF ATOMS
32        
ITEM: BOX BOUNDS xy xz yz pp pp pp
   -0.1488681866578727      8.5291730639321983     -0.0744340933289362
   -0.0750823104817943      8.5288489553557696     -0.0744340933289365
    0.0000000000000000      8.5285163176062770     -0.0750823104817943
ITEM: ATOMS id type x y z
1      1          0.0382772228763149     0.0463389972563436    -0.0035728705964812
2      1          2.1721637383877068    -0.0639082408507376     2.1393630975357434
3      1          2.0876618091741053     2.1514873170461226     0.0544084478921299
4      1          0.0146770010084145     2.0574020089778866     2.1362124210059266
5      1         -0.0621111440861671    -0.0904749091102736     4.2968540995015676
6      1          2.0928296351335418    -0.0795362446557805     6.3724983038285927
7      1          2.0901233285203560     2.0849700021551283     4.2262709278109964
8      1         -0.0349363457871727     2.0957261423060531     6.3805234027644460
9      1          0.0257760139165095     4.2589931002707724    -0.0539862538254652
10     1          2.0141650719648951     4.2530678837432596     2.1126736091840863
11     1          2.0390711102288837     6.4187767439561831     0.0147136764525894
12     1         -0.1293176161607272     6.3277986136351370     2.1137644904189634
13     1         -0.0902062401587597     4.1996616136861409     4.3062737182333741
14     1          2.0348278466295775     4.2541792349934893     6.3312341645452888
15     1          2.0399052633545360     6.3806334290969708     4.2899284109736540
16     1         -0.1566493512440979     6.2880108742092000     6.3291556050696087
17     1          4.2184863515555460     0.0039285371132472     0.0485497589145149
18     1          6.3739712920167335     0.0071619466217839     2.1970731883209216
19     1          6.3544991899117766     2.0858962703498714    -0.0606253621384301
20     1          4.2948454792450121     2.0464624916060874     2.1539104551135861
21     1          4.2402570658012326    -0.0304150311459822     4.2859811096796658
22     1          6.3617660453622467    -0.0511682150451420     6.4266090835807912
23     1          6.3555508369505587     2.1408122040393054     4.1973519136204276
24     1          4.1406806761144370     2.1001126960128333     6.4212851737542849
25     1          4.2218604924196379     4.3200346860547221    -0.0589263508640948
26     1          6.3990581487496776     4.2674693924617078     2.1778100509560301
27     1          6.3404260543562883     6.3771484089830484    -0.0113352710019659
28     1          4.2040686374082750     6.3114072488408723     2.1940939481696899
29     1          4.1791591874750607     4.1891715837348107     4.3176277534160814
30     1          6.3169597405054922     4.2343378196948640     6.4499986348740119
31     1          6.2491485500606991     6.3838762206958783     4.2284313673480911
32     1          4.1157268744812905     6.3869151650585572     6.3717878237123671
ITEM: TIMESTEP energy, energy_weight, force_weight, nsims
2        -61559.3125463543838123    1    1   300
ITEM: NUMBER OF ATOMS
32        
ITEM: BOX BOUNDS xy xz yz pp pp pp
   -0.1190843143186218      8.5291730639321983     -0.0595421571593109
   -0.0599600866394429      8.5289683637786666     -0.0595421571593109
    0.0000000000000000      8.5287551344520640     -0.0599600866394429
ITEM: ATOMS id type x y z
1      1          0.0670512411247966    -0.0341243685114863    -0.0193492820128366
2      1          2.1240719960667254    -0.0649061540992176     2.1780812786594632
3      1          2.1048190937095113     2.1421401962853595    -0.0253572315190704
4      1         -0.0320347211108229     2.0702947069813264     2.0705625230155338
5      1         -0.0680875356520643    -0.0296704343375009     4.2374449974420543
6      1          2.0421407596145928    -0.1092075319105879     6.4148098255641477
7      1          2.0666595734214783     2.1190141964398137     4.2663716878883804
8      1         -0.0647202181264239     2.0383606301126580     6.3440620408334425
9      1          0.0116064987053989     4.3020108375360211    -0.0553679798618223
10     1          2.0241800269765644     4.2383072968388174     2.1108321607195837
11     1          2.0345898827010935     6.4027717507017137     0.0195096304664385
12     1         -0.0678043671063418     6.4295763828897332     2.0738300492163262
13     1         -0.0260839170641175     4.2490361436359381     4.2363677628840799
14     1          2.0763811248797488     4.1632898080723084     6.3686286180094864
15     1          2.0404792767017388     6.4205584882092381     4.2193435334484715
16     1         -0.1322908858908140     6.3255460590289525     6.3878098753129633
17     1          4.2255092726563870     0.0251277967636507    -0.0249145674370523
18     1          6.3152564646446239     0.0055473741607815     2.1077028071224269
19     1          6.3511293136342166     2.1081855583178455     0.0371573424530206
20     1          4.1967719298520816     2.1059202099520649     2.1052762573857380
21     1          4.1746481078415467    -0.0836080718765018     4.2627203488997107
22     1          6.3466497919410392     0.0175990957001177     6.4053253851170551
23     1          6.4163732229867669     2.0436384824046194     4.2706072752319297
24     1          4.1455201289109125     2.0735383514975401     6.4447003125666980
25     1          4.2589888356842414     4.1977920189505271    -0.0428812704962255
26     1          6.2923121361853402     4.3100760235852764     2.1499077141946827
27     1          6.3721963711021301     6.3493475693811616     0.0547154981224314
28     1          4.1740732415770383     6.3191474733963897     2.1615039778924046
29     1          4.1382652143027316     4.2353195275145223     4.2162372086185869
30     1          6.3617327815872970     4.1531170633589571     6.4485691454684977
31     1          6.3685023862481396     6.3388259814894949     4.2271221392827769
32     1          4.1736698116911146     6.2987226626601922     6.4438977173813816
ITEM: TIMESTEP energy, energy_weight, force_weight, nsims
3        -61559.3412728810581029    1    1   300
ITEM: NUMBER OF ATOMS
32        
ITEM: BOX BOUNDS xy xz yz pp pp pp
   -0.0893175003254977      8.5291730639321983     -0.0446587501627485
   -0.0448890378354749      8.5290536555093031     -0.0446587501627492
    0.0000000000000000      8.5289342470864060     -0.0448890378354749
ITEM: ATOMS id type x y z
1      1          0.0388282074562449    -0.0150556962924531    -0.0458971860916319
2      1          2.0775982378759719    -0.0220794703106013     2.1334216755794078
3      1          2.0637835362643209     2.0920432453770470     0.0069717460624582
4      1          0.0307237872108966     2.1483391992682255     2.1760692467336815
5      1         -0.0865156669739963     0.0202030522365362     4.3320642317440923
6      1          2.0352841573884977    -0.0633504329323564     6.3844937328257068
7      1          2.0483832613800845     2.1185135339809609     4.2107717145192192
8      1          0.0134743876064001     2.1042374041065512     6.4185677792161151
9      1         -0.0209459432104047     4.3242881846617065    -0.0599131761875917
10     1          2.0847380086477894     4.2281004354332099     2.1015447441702677
11     1          2.1348562824887609     6.4305947661535674     0.0170813748951370
12     1         -0.0853923748814764     6.4238908361253158     2.1381076032607322
13     1         -0.0119451068760370     4.1995848511285656     4.2324008444920445
14     1          2.0470919445782054     4.2221206321980871     6.4284155624357320
15     1          2.0459217420338338     6.3540701725066606     4.2245207414982779
16     1         -0.0377859425078324     6.2961869395082841     6.3656391428505783
17     1          4.3037217896526467     0.0410944087393317    -0.0276635199155577
18     1          6.4018318358300688    -0.0080319222743050     2.1972582713764086
19     1          6.4437356630931664     2.0787198241338789    -0.0389254400291738
20     1          4.2097729483534323     2.1682377600263796     2.0673359368454483
21     1          4.2623987990752008    -0.0713081514010051     4.2168820141022199
22     1          6.4107166754107663    -0.0729423409600546     6.4323176591124813
23     1          6.3715438893627390     2.1348852816771791     4.2512221706922242
24     1          4.2293840759793317     2.1665617775193167     6.4070286609779226
25     1          4.2122165564362497     4.2157501928366363     0.0487297244661638
26     1          6.3214230567698468     4.2121790280747682     2.1394654476125101
27     1          6.3369990326192003     6.4381609955785812    -0.0350634304658253
28     1          4.1650212302042871     6.4069493396684276     2.1731411816208341
29     1          4.1996189678208218     4.2268611465870212     4.3285450949379145
30     1          6.3554629864680008     4.1779028402827434     6.4449459527509392
31     1          6.3492426605524752     6.3676904089724546     4.3070157562899372
32     1          4.2258973500307970     6.3092945726729361     6.3891771017551120
ITEM: TIMESTEP energy, energy_weight, force_weight, nsims
4        -61559.2758955970421084    1    1   300
ITEM: NUMBER OF ATOMS
32        
ITEM: BOX BOUNDS xy xz yz pp pp pp
   -0.0595506863323726      8.5291730639321983     -0.0297753431661866
   -0.0298776932429538      8.5291218888938172     -0.0297753431661860
    0.0000000000000000      8.5290707138554289     -0.0298776932429538
ITEM: ATOMS id type x y z
1      1          0.0543436261768440    -0.0007070684470000     0.0674273776569160
2      1          2.1198927012653987    -0.0139119341845798     2.0854868700428026
3      1          2.0705267004886654     2.1452200806787456     0.0293429140918459
4      1         -0.0538395520487656     2.1635731552777147     2.1150378959574083
5      1         -0.0612036400721647     0.0330454281188989     4.2797676071025919
6      1          2.1768104318729375    -0.0230372964456809     6.3567628324429437
7      1          2.1567617576688582     2.0920057170155659     4.2451408702976403
8      1         -0.0469232456112230     2.1650836718273370     6.4370445268245122
9      1          0.0520040740054074     4.3160797085049776     0.0427115399522533
10     1          2.1026620658416428     4.2111708798186109     2.1113669398706922
11     1          2.1580522215534317     6.4539459361680009    -0.0334300938240823
12     1         -0.0330650452169460     6.3274472117049028     2.0659456816360273
13     1         -0.0222381129295904     4.1840830790848687     4.2381827709120854
14     1          2.0760066941822419     4.2634060944140506     6.4556577412019314
15     1          2.1247133898811330     6.4263122683581662     4.2427740247723991
16     1         -0.0498316936260239     6.3597599838576100     6.4582838735883161
17     1          4.3064315079350575     0.0602023151544590     0.0005040741280784
18     1          6.3391364433890223     0.0112951838885654     2.1569903395069718
19     1          6.3312640166510121     2.1066938059489635     0.0393587220208215
20     1          4.2567115464761711     2.1773085355798711     2.0657725394228295
21     1          4.2825489704387403    -0.0608684435707521     4.2536094862328184
22     1          6.3342577563964522     0.0016589241609348     6.3451930091817212
23     1          6.3115181280907029     2.0904789950371221     4.2603441212840991
24     1          4.2659546113255535     2.0505573475940810     6.3303846589081205
25     1          4.2366986947989602     4.3319644404192443     0.0291868302247760
26     1          6.4226404593541435     4.2735208407505683     2.1938517196546741
27     1          6.3942997230973093     6.4372065811127275    -0.0306666417513682
28     1          4.2875376837638353     6.3612977937610369     2.1172665688790135
29     1          4.1939564498236770     4.3004662042941435     4.2601027456863898
30     1          6.3690115778800571     4.2798511929986187     6.3814974343283479
31     1          6.3387048672319866     6.4480846884384659     4.2721629963987899
32     1          4.1544732018761223     6.4337335018410933     6.3751568470726196
ITEM: TIMESTEP energy, energy_weight, force_weight, nsims
5        -61559.3418757495383034    1    1   300
ITEM: NUMBER OF ATOMS
32        
ITEM: BOX BOUNDS xy xz yz pp pp pp
   -0.0297668139931234      8.5291730639321983     -0.0148834069965615
   -0.0149089945157522      8.5291560055860725     -0.0148834069965619
    0.0000000000000000      8.5291474764130069     -0.0149089945157522
ITEM: ATOMS id type x y z
1      1         -0.0021519103640301     0.0448967140912327    -0.0344808879455587
2      1          2.0714017936450246    -0.0517081117000890     2.0891049452565227
3      1          2.1073829631325296     2.0903604395315338    -0.0365031548790170
4      1         -0.0348416719661630     2.1279109768628013     2.1284372268408456
5      1         -0.0552775706273446    -0.0560477549550177     4.3194094976691364
6      1          2.1466546875880987     0.0494649391842748     6.3748651493538340
7      1          2.0724952336318214     2.1572675376315495     4.3067232056538440
8      1          0.0342480415209133     2.0762455110280320     6.3408533659267903
9      1         -0.0411387604392642     4.1977399909948367     0.0049349795347912
10     1          2.1340408935438493     4.1973681190492496     2.2003407145217135
11     1          2.1530737432360141     6.3476954685586788    -0.0377015036944995
12     1         -0.0120952203219623     6.3679744304354831     2.1034203093270265
13     1          0.0033946108794450     4.2874865087254506     4.2975108458274898
14     1          2.0459285653722850     4.1938575114161356     6.3395611962076055
15     1          2.1584923268835303     6.3302089579430039     4.3279864341022263
16     1         -0.0208862389989572     6.4103132455248426     6.4220007713743490
17     1          4.2600311006326539     0.0079039846783460    -0.0529601943058742
18     1          6.3748404147519482    -0.0531521006998127     2.0748390503897896
19     1          6.3335080420841328     2.0800162584395965    -0.0574183930663916
20     1          4.3241321007946354     2.1396138552238226     2.1160699258981444
21     1          4.2114028733259499     0.0376827395137588     4.2300143818687568
22     1          6.3870661314217889     0.0092447706839961     6.3374459612877496
23     1          6.3747679167809048     2.1191796623972539     4.2553366437782651
24     1          4.2975500800235844     2.0717173730483904     6.3986854238867839
25     1          4.2811604210639329     4.2813207695175350     0.0293548549341354
26     1          6.3620406847349047     4.2273711911362444     2.1437556216636682
27     1          6.3460049864574062     6.3625089363361154     0.0055141103858322
28     1          4.2221846009960666     6.3802291462937406     2.1231184345181777
29     1          4.2886004187275999     4.3050003126949292     4.3107293582419723
30     1          6.3745845395600300     4.2111316456225172     6.4394181956882042
31     1          6.3200498599065549     6.3546373625154118     4.3002845329078818
32     1          4.1762038290084087     6.3173964341663655     6.4529940804540651
ITEM: TIMESTEP energy, energy_weight, force_weight, nsims
6        -61559.3289195874895086    1    1   300
ITEM: NUMBER OF ATOMS
32        
ITEM: BOX BOUNDS xy xz yz pp pp pp
    0.0000000000000000      8.5291730639322001      0.0000000000000005
    0.0000000000000000      8.5291730639321983      0.0000000000000005
    0.0000000000000000      8.5291730639321983      0.0000000000000005
ITEM: ATOMS id type x y z
1      1          0.0628497704735036    -0.0162131050772287    -0.0484900547030673
2      1          2.0742360378541695    -0.0232053211550403     2.1529133947824124
3      1          2.1326668437632494     2.1558039315337787    -0.0592496065232178
4      1          0.0173457792601189     2.1781085720132674     2.1038203275437248
5      1          0.0051669730421301    -0.0659270961149703     4.3201532415603117
6      1          2.1832772508900109     0.0081598598702639     6.3752037575244715
7      1          2.1533645880374941     2.0887040741225178     4.2387695780188830
8      1         -0.0013808731190506     2.0811233451032951     6.4199367114928769
9      1          0.0257888076761054     4.2345066973215300    -0.0144083320569007
10     1          2.1368759906703008     4.3220245421305377     2.1005963001255585
11     1          2.1315367283322786     6.3437345205877875    -0.0536015881202819
12     1          0.0345354746531679     6.4609074472227812     2.1218356468893624
13     1          0.0623576371877147     4.2169818054270678     4.3089595548312065
14     1          2.1511760022292892     4.3249091084607603     6.4300778982658926
15     1          2.0813843377990513     6.4381584368266616     4.2653720688052879
16     1         -0.0484491146723605     6.4108676417739980     6.4413850229967462
17     1          4.2241301053719500     0.0216376591458896    -0.0392580777786671
18     1          6.3663530346360302    -0.0139110812672734     2.1209025553561687
19     1          6.3667726699507750     2.1905603117693029     0.0441427351923811
20     1          4.2625932642210582     2.1961835955703530     2.1297515724099982
21     1          4.2397913729519425     0.0403182539905139     4.3145035173227635
22     1          6.4350435828237140     0.0525942927814315     6.4545617424632162
23     1          6.3453397109584193     2.0724048243973434     4.3130100591192679
24     1          4.2587201667327266     2.1013153094148480     6.3420175980500177
25     1          4.2538875372747027     4.3051563965619994     0.0019506218797213
26     1          6.4226020780753563     4.2223108327574135     2.0902862357258774
27     1          6.4331347538920065     6.4297597601106080     0.0398713253219639
28     1          4.2211406302130419     6.3487633210262819     2.0730061310983507
29     1          4.2070205842057016     4.2748334804851078     4.2515300738398318
30     1          6.3645405853599435     4.2019585199922584     6.3514534222106453
31     1          6.3923260724503157     6.4048605451850698     4.2040839899197904
32     1          4.2804260592631271     6.3440100128777530     6.3826881068880716
ITEM: TIMESTEP energy, energy_weight, force_weight, nsims
7        -61559.3558226785025909    1    1   300
ITEM: NUMBER OF ATOMS
32        
ITEM: BOX BOUNDS xy xz yz pp pp pp
    0.0000000000000000      8.5589398779253223      0.0148834069965626
    0.0000000000000000      8.5440138250634412      0.0148834069965619
    0.0000000000000000      8.5291474764130051      0.0148578194773696
ITEM: ATOMS id type x y z
1      1          0.0406457742361689    -0.0408257397878179    -0.0203702240285893
2      1          2.1494641971953579    -0.0271594457874793     2.1106496364160154
3      1          2.1948811908434904     2.1868697385845390     0.0025843394383715
4      1          0.0480610372979516     2.1810246962838260     2.1739386593023120
5      1          0.0002951093880121     0.0410867324835742     4.3272478077148904
6      1          2.1120876549945944     0.0753057748160702     6.3883020085987532
7      1          2.0803608370313791     2.1683290221781628     4.3301076394432263
8      1         -0.0267841621726663     2.1963106802490056     6.3890406349860900
9      1         -0.0165184494729175     4.2025555621067330    -0.0094656762663520
10     1          2.1713236148409099     4.3234932657321474     2.0772809526379934
11     1          2.1551122155982938     6.4506204115903731    -0.0127042032787270
12     1          0.0409818236548878     6.3700589603323072     2.1389502855594489
13     1          0.0148561136427571     4.3097314449934920     4.1985545270224423
14     1          2.1029119706124160     4.2593752072240374     6.4013977009211134
15     1          2.2188652254992678     6.4134033649259052     4.2665030371535648
16     1          0.0311945975640256     6.4251309778888119     6.4519850792806022
17     1          4.3299652022530593    -0.0118094930243205    -0.0253188502402827
18     1          6.4010829744350550     0.0280294214400004     2.1376461749979736
19     1          6.3955603348761585     2.0824846011242983     0.0284149400624901
20     1          4.3005267614228977     2.1621504892106511     2.1569715753262311
21     1          4.3089160560485809    -0.0496747568416475     4.3105715685402899
22     1          6.3500043157070838     0.0734310625766179     6.4075677047155626
23     1          6.3885305904368659     2.1748998971066165     4.1978065185447360
24     1          4.3319337353962135     2.0814986287181076     6.4564501013795716
25     1          4.2262402227879665     4.2693159584300497     0.0084319404910034
26     1          6.3437532847685283     4.2500596444036098     2.0765175916487717
27     1          6.4699765169416610     6.4630022121272841     0.0180605239628764
28     1          4.3313460753721094     6.3777087756533497     2.1594356534244015
29     1          4.2961282668738274     4.2721885839179823     4.3317605931830165
30     1          6.4323594520604948     4.3056945873823329     6.4043070018532209
31     1          6.4266832873864468     6.3543422531273999     4.2714405754402760
32     1          4.2932846405743117     6.4407095124900842     6.3991494109014617
ITEM: TIMESTEP energy, energy_weight, force_weight, nsims
8        -61559.3382586747102323    1    1   300
ITEM: NUMBER OF ATOMS
32        
ITEM: BOX BOUNDS xy xz yz pp pp pp
    0.0000000000000000      8.5887237502645739      0.0297753431661877
    0.0000000000000000      8.5587863528101753      0.0297753431661882
    0.0000000000000000      8.5290707138554307      0.0296644639163575
ITEM: ATOMS id type x y z
1      1          0.0076259336364618    -0.0294751162743369     0.0449513007988419
2      1          2.1037486824899876     0.0357406468071015     2.1230732299009389
3      1          2.1909663004071458     2.1371915700736666     0.0522386262646655
4      1         -0.0203199019075121     2.0999813467476489     2.1747352840664829
5      1          0.0543086565672819     0.0579088205175677     4.2075357462587633
6      1          2.1984736785380190     0.0808087972769192     6.4186863347217047
7      1          2.2027954105295131     2.0872293800997639     4.2207653465982284
8      1          0.0715495269987144     2.1879486789771265     6.4228852466210782
9      1          0.0701908297296300     4.2205239710005191    -0.0552818352138765
10     1          2.0874579619378770     4.2234221840076440     2.1451237010231230
11     1          2.2188814309280898     6.4497819938781893    -0.0003718719455874
12     1          0.0701166259239738     6.4444239673594259     2.1674351648410632
13     1         -0.0306376425629508     4.2149475976513200     4.2420072521139520
14     1          2.2365487600127185     4.2273319569401497     6.3689467561647710
15     1          2.2367005792932568     6.4627318373411571     4.2350875340071834
16     1          0.0958977573443217     6.3539703811818136     6.3522125186133360
17     1          4.2960190934586091     0.0346156488799688     0.0052130305766754
18     1          6.3514508634587274    -0.0592180485828813     2.1784335335070035
19     1          6.4097409380122530     2.0820462016288119     0.0280029810035022
20     1          4.2390024244435285     2.1304535233531596     2.1267603914164770
21     1          4.3156523969344738     0.0768487022233355     4.2526618951054163
22     1          6.4674646754743330     0.0845548100865983     6.4307218508322190
23     1          6.3843947944181645     2.1344093538202107     4.2698677959272864
24     1          4.2343958180716994     2.1262733756345265     6.3490473424893112
25     1          4.3118543561691052     4.2099870305973379    -0.0612889318028040
26     1          6.4818678900273952     4.3271104880285600     2.1106590185063858
27     1          6.3761411136441977     6.3594051702581513    -0.0244974908742261
28     1          4.3076366800889909     6.3654352956143496     2.1242579320395194
29     1          4.3070353733879836     4.2469183499641634     4.2277788856087000
30     1          6.4967837078816002     4.2980251549632449     6.4140558466652955
31     1          6.4414788439004509     6.4385908659010029     4.2973905844872888
32     1          4.3268059965501786     6.3724769808959332     6.3367704507810876
ITEM: TIMESTEP energy, energy_weight, force_weight, nsims
9        -61559.3791107355500571    1    1   300
ITEM: NUMBER OF ATOMS
32        
ITEM: BOX BOUNDS xy xz yz pp pp pp
    0.0000000000000000      8.6184905642576979      0.0446587501627496
    0.0000000000000000      8.5734821179993261      0.0446587501627504
    0.0000000000000000      8.5289427762594734      0.0444284624900232
ITEM: ATOMS id type x y z
1      1          0.0425836023562943    -0.0308551364760811    -0.0474665539353955
2      1          2.0840343518700148     0.0079125138514099     2.1961042742608581
3      1          2.1270589124737147     2.1378022588650434    -0.0422765521259927
4      1          0.0771932808151184     2.1206296218181224     2.0652232606775125
5      1          0.0408820323300398     0.0544101537267427     4.3197225183205834
6      1          2.1773725043778502     0.0430134726787165     6.4121657819143287
7      1          2.0998789966708817     2.1449010896061540     4.3078729381828618
8      1         -0.0077257249613098     2.1803108044983754     6.3824706129749424
9      1         -0.0104260611533507     4.2807996370433283    -0.0027574816515693
10     1          2.1674326060891440     4.3166443397618099     2.1217938539413490
11     1          2.1715129624829292     6.4441245933848821     0.0447124839530518
12     1          0.0642340552617798     6.3619315113196864     2.1213691011227653
13     1          0.0245281958972562     4.2763277916059081     4.1995976448881613
14     1          2.2146168443961236     4.3657143782332248     6.3304725093906793
15     1          2.2271240237770731     6.4501990704410144     4.3175185800008631
16     1          0.0965058873837800     6.4344789515668817     6.3499011127130114
17     1          4.2269003807831149     0.0381441677765176     0.0088336645423146
18     1          6.4340132587175907    -0.0432642303667961     2.0772886288937511
19     1          6.4013328792058282     2.0808478528133301    -0.0367692650786117
20     1          4.2685065399062827     2.1589170797021140     2.1725884912062914
21     1          4.2340162698703541    -0.0159589357199235     4.3144378426901708
22     1          6.4525420342816773    -0.0252872922999462     6.4363246646179171
23     1          6.3883403898775395     2.1765340866656659     4.3267573802637136
24     1          4.3450243102147379     2.1373297426773017     6.4201115595406879
25     1          4.2947806575297269     4.2125841637953050     0.0111518937810914
26     1          6.4424579929681896     4.2763158507636190     2.1777247592253910
27     1          6.4923971541748191     6.3382127339461984     0.0335298851489303
28     1          4.2819596045800230     6.4172269932104662     2.1573059189103376
29     1          4.2705219835012898     4.2574058211635748     4.1985076165705912
30     1          6.4358077967302414     4.3477852035355324     6.4587188614145772
31     1          6.4702682146604467     6.4513436854661945     4.2905578639457724
32     1          4.3762154961095376     6.3928599986841190     6.4553796901600471
ITEM: TIMESTEP energy, energy_weight, force_weight, nsims
10       -61559.3478908286415390    1    1   300
ITEM: NUMBER OF ATOMS
32        
ITEM: BOX BOUNDS xy xz yz pp pp pp
    0.0000000000000000      8.6482573782508219      0.0595421571593119
    0.0000000000000000      8.5881011206309097      0.0595421571593109
    0.0000000000000000      8.5287636636251296      0.0591327568522423
ITEM: ATOMS id type x y z
1      1         -0.0417221558768371    -0.0261999138177869     0.0047285735466440
2      1          2.1645062468109093     0.0438356849620795     2.1153782099626595
3      1          2.1681405274534504     2.1928631884965641     0.0053059985630722
4      1         -0.0191403172727703     2.1605802684495807     2.1568726369186892
5      1          0.0977997629375786     0.0720373956979714     4.3255044447406226
6      1          2.2044961276384614     0.0534983851262083     6.3600167119668338
7      1          2.2389318109667808     2.1635381856681524     4.2990750961674165
8      1          0.0624906922875120     2.1541876532381634     6.3442820934984923
9      1          0.0515017057119418     4.2126796905336210    -0.0071457411929624
10     1          2.1927540150813458     4.2399389276459480     2.1798766695894209
11     1          2.1515052283095568     6.3508649092692346     0.0428795646616127
12     1          0.0923155046574702     6.4034788191487131     2.0963530365262524
13     1          0.0088490170538297     4.3472060726844912     4.3219332799787544
14     1          2.1820925487514300     4.3249500484914662     6.3612167666169288
15     1          2.1665438662558825     6.4070226905567766     4.2260713451613006
16     1          0.0848755069938021     6.5039823299475596     6.3592968497602378
17     1          4.1977903131159140     0.0639926796640705    -0.0577177670409356
18     1          6.3934143949332736     0.0201365246866375     2.1033418409348386
19     1          6.3795237836813543     2.1869175019536966     0.0565919161964965
20     1          4.3228885473619147     2.2116956026217265     2.1943737050461869
21     1          4.2552078532649995     0.0626365411469053     4.3252340699544947
22     1          6.4555826844789683     0.0636489539895940     6.3498712606072871
23     1          6.3977565969401207     2.1325354944980650     4.3092623404749757