ITEM: TIMESTEP energy, energy_weight, force_weight, nsims
1        -86549.5372311138198711    1    1   99
ITEM: NUMBER OF ATOMS
45        
ITEM: BOX BOUNDS xy xz yz pp pp pp
    0.0000000000000000     11.9999937223983011      0.0000000000000007
    0.0000000000000000     11.9999937223982993      0.0000000000000007
    0.0000000000000000     11.9999937223982993      0.0000000000000007
ITEM: ATOMS id type x y z
1      1          0.8736979429391198     3.5430425465148705     6.8243544299498851
2      1          8.2293064949720449     4.3729633123553100    11.8560717976887151
3      1          2.7323421706195972     8.5241487407301140     3.9452787360915447
4      1          6.3511082775209173     1.8773594178899300     1.2877625263279622
5      1          1.4774020271211392    10.3696349752939820    10.7062503991990940
6      1          2.6550454110561410     3.4394586007031283     4.2602377713258441
7      1          7.6886563778043664     6.7336716773890926     2.4580031141356167
8      1          9.9442315978368452    10.6308508386431484     4.8139714816490518
9      1          4.8510406622569127     3.4866605760101828     8.6787686598432163
10     1          9.3913378870742061     6.6260425336935302     6.7283268801851372
11     1          8.5898199063753129     3.9173223507164736     3.2755218864639564
12     1          7.5720932387824780    11.2052977381305894     6.6302413314969977
13     1          4.2152461948624564     7.8592734885487969    10.1702022796239575
14     1          8.8995097443661049     2.3840711528119205     6.6642433137094121
15     1         11.6265995177334087     5.3690227912829807     3.6750136774763185
16     1         11.5447127605711355     0.9226267173428266     8.0079798107555025
17     1          0.0836315562495105     0.6775640455433808     0.2506942688533673
18     1         11.0928253969686654     9.8339300555393052     7.8943494701993675
19     1          5.1684188962256483     0.2517730682890110     4.2937477537956417
20     1          5.5249843096942461    10.7035492006121817     0.5090877336790255
21     1          4.3631257175016875    11.9614197425776503     9.8630552403029377
22     1          0.8282155667324858     0.9699186926027984     4.4201064876931238
23     1          1.8904910110203503     5.7260874044904302     1.1090166198359781
24     1          6.7897056480758318     6.4566674222993674     9.0769308515511362
25     1          4.9136146295223586     5.4733795366904445     6.3388706839228162
26     1          5.6985222189107096     9.2152547791892214     7.9344582492171130
27     1         11.0829890021144166     7.6810507817831111    11.8455298032035881
28     1          0.8137447743026457     7.5298424608852859     6.1251999957011654
29     1          9.1070244358081656     9.3391487143761243    10.1205715055874883
30     1          1.6691787267962754     3.2009959254510019    10.0388959483147282
31     1          3.2278735113904293     1.6459503389478289     1.2205913614674655
32     1          5.0505645578792295     5.0086329798150526     3.0625615978706704
33     1         10.8672747149618392     4.6041683914041291     9.7490660999345042
34     1          8.9268385300694959     1.5914571674550460     9.9299168053253979
35     1          8.4582459752060757     9.3834670911916831     1.2793673307197724
36     1          2.9291180676794850    10.4544041309483777     6.5268961855603314
37     1         10.1119075101199165     0.9688626931552272     2.7732021492443639
38     1         11.3101368832856934     3.5263853552288098     0.8164615728813968
39     1          4.6887815471401320     4.1883818089161231    11.7554314503370776
40     1          0.2395270746953035     9.7979156743796452     2.4099215392887112
41     1          6.1334571913815470     8.4822987626232500     4.9305046206866345
42     1          3.1412323567153413     1.4628148347521919     7.1355154671710439
43     1          4.8711202517526022     7.2743649945341708     1.0901202297213177
44     1          1.8781970174517535     6.3037407023004954     8.7324578317565997
45     1          6.3061467010418371     3.0115136245755880     5.0423265621888032
ITEM: TIMESTEP energy, energy_weight, force_weight, nsims
2        -88473.8466556051571388    1    1   99
ITEM: NUMBER OF ATOMS
46        
ITEM: BOX BOUNDS xy xz yz pp pp pp
    0.0000000000000000     11.9999937223983011      0.0000000000000007
    0.0000000000000000     11.9999937223982993      0.0000000000000007
    0.0000000000000000     11.9999937223982993      0.0000000000000007
ITEM: ATOMS id type x y z
1      1          4.0934774585637923     2.9539136547080762    10.9650254638251248
2      1          6.0027916597370954     8.4500331795024657     9.4040386804299931
3      1         10.4012525587537592     8.8059337933188448    11.8737681884311357
4      1          0.5312721220736232     4.4754744587282689     6.1188891990025551
5      1          6.3705038673744312     0.3353458245692817     2.2516128221053435
6      1         10.2836478202767641     0.6558584568983068     5.7419165962096468
7      1          7.5355172579166085     4.3087741459348292     5.2766732395941469
8      1          7.4980940774939375    10.7600547710522108     6.3238742917679351
9      1         10.5132365001711783     1.4792524261531330     1.4512228408163548
10     1         11.8750209877757555     7.2485218080536136     3.7767724242428837
11     1         10.7156691942718041    11.8125586204519273    10.6770484144756370
12     1          1.1458314005769239     5.3686447914807243     0.2310286791411010
13     1          2.2165524404466126    11.1260845795696657     5.7434693953973248
14     1          4.3353481320330802     9.9308576048332338    11.7160042709627650
15     1          3.5686301331291403    11.9449437511967975     9.2198495767855295
16     1          5.4889387285509059     6.6502717210184246     4.4351736798109664
17     1         10.0573495386610343     3.6885088704165274     9.0572292618577031
18     1          3.5358437502808044     4.5972947949999394     7.1824354426256214
19     1          7.9148814594583916     9.0819756489120316     1.5511575885371158
20     1          9.1729944012970517     4.0400762864997475     0.2857918504926379
21     1          1.8522290310364835     0.2787670541675459     1.8290426431660656
22     1          6.2504607301730477     1.3647916860314091     9.4498018564897297
23     1          8.7436718258901784     5.9943388641590394     2.8364373161639138
24     1         11.5091135791942705     9.8116964671704459     5.7253578048721092
25     1          2.2107696434717892     8.7664874139545770     9.7831412821086285
26     1          4.7090051365604904     6.5919721515168961     1.3283297051059020
27     1          1.1793617830360494     4.2449113793435966     3.1217731668951005
28     1          5.4431107525250679     3.1800727363966286     3.2760882861676541
29     1          1.4514640406901753     2.5066906886655032     8.5609947214547368
30     1          7.2586990027295810     5.2479464546220980     9.1764743994765468
31     1          3.4594709902339718     8.6247698880917962     3.1712947409886936
32     1          4.0250978943354490     6.3443318810658802    10.2328434468542468
33     1          7.7601991403779333    11.2319665241792475    11.3374968689727602
34     1         10.9643654641703918     8.3299204423374924     8.5077651493009245
35     1          1.9601629745725948     8.2151945023545032     6.6981600959663989
36     1          9.0032844900780340     7.8072355157716169     5.6668350354873445
37     1          4.4983404467662993     1.7894138638972172     6.3005715039584098
38     1          4.5865608006152545     9.7664048908639973     6.9887159439668292
39     1         10.2329622467920984    10.6709200176816097     2.8602045037304955
40     1          1.3380593000160226     9.1273632251682599     0.6910856384697793
41     1          0.8485195561107837     5.8233857535903804     8.8103497910086848
42     1          0.5107977327844672    11.2068517373176384     8.2629544773696484
43     1          1.1637317912126255     2.2894320023208539    11.6946022821588684
44     1         10.3089798070247483     3.2237167135649911     4.1528642274965684
45     1          7.4509197021724454     6.5223025879633960    11.9149257669002182
46     1          0.9658626947246277     1.7217458992966133     4.8650974549033306
ITEM: TIMESTEP energy, energy_weight, force_weight, nsims
3        -86549.2264387379836990    1    1   99
ITEM: NUMBER OF ATOMS
45        
ITEM: BOX BOUNDS xy xz yz pp pp pp
    0.0000000000000000     11.9999937223983011      0.0000000000000007
    0.0000000000000000     11.9999937223982993      0.0000000000000007
    0.0000000000000000     11.9999937223982993      0.0000000000000007
ITEM: ATOMS id type x y z
1      1         10.2245322512021151     3.2864502807469442     4.4697768617088744
2      1         10.7362155835232951     9.5427958078414559     4.9574818065739574
3      1          6.2887971101179927     6.2265303426918388     4.3301881347324480
4      1          3.5129813622408910     3.5355641504270725    11.3144244810427050
5      1          0.0207707891340992     4.0664354727103671     0.4478637657073493
6      1          7.5684404406933803     8.8752085570788761     7.0083755336822344
7      1         11.2140721335404070     9.1473300147229590     0.8651611474050058
8      1          2.2238892366084868     0.0767891598289989     7.8856314747600456
9      1          2.2372464296208880     9.1181184300045253    10.7954739525232419
10     1          9.3493115090596213     4.8871498433669815     9.1071636357353469
11     1          1.0861014318236866     6.9545807618240953     1.9843153619376661
12     1          3.0966775800234494     4.7244023285056995     2.1446892780406581
13     1          5.7544889896326028     1.6179027536204675     2.1810576590151305
14     1          6.6694669109767721     3.0299648149231477     9.7266573116572985
15     1          4.6962527432316969    10.8323763332183596     5.3696467909565451
16     1          7.8667230846516638     8.9399965231861067    11.6653738974492232
17     1          4.0634150742904396     7.3963857307010059     6.3075171003249348
18     1          9.7286145106334203    11.9774205342070950     9.2011715865566135
19     1          0.3138910357930058     6.0386176409953150     5.6162190619662686
20     1         11.3625468558682670     0.2520802681283044     6.5850841551202404
21     1          6.9267023764082190     6.1498107828264317    10.3729145735783135
22     1          4.3142797430546649     7.8708450824953058     2.1953724515265796
23     1          3.8269599979880704    11.8377490072739864    10.5801844651484380
24     1          2.3903339495356399     1.7685722748001558     3.2129083192192263
25     1          7.6595863930118560     6.3841226602499814     1.2922109240008552
26     1         10.0735903301649277     0.4943601413835261     1.3716424824475262
27     1          7.6931923754314333     0.3115714370064662     6.1683927731055643
28     1          1.3103993144858943     4.4937696491574375     8.6798834592600258
29     1          2.8964768847551889    11.0401142245436592     1.3599880885443332
30     1          6.3704102674233951    10.3608977798647039     9.3937258858249617
31     1          7.7256631584448696    10.9542554694592713     3.0419684086436627
32     1          6.1717407713541146     5.1590697011165272     7.3682637454125652
33     1          8.9541421157860679     3.5249477559808664     0.9701826924646912
34     1         10.1225167045698896     8.4070648019806740     8.8675117611053320
35     1          4.7141447338717937     2.3364599777189330     7.4026857274052649
36     1          0.4124085842551513     1.0729890386832219    11.2636597075994711
37     1          1.4854756228975687     2.6370298204807043     6.2616711243085117
38     1          9.5151574223000299     6.7289496798593289     4.7755043017725329
39     1          0.7923271855069092     9.3062291315974690     7.8120931132304445
40     1         10.8838887062705005     6.6519913201188441    11.2096297358643735
41     1          7.4457417048812298     0.3212422319473470    11.8906125796192654
42     1          1.6474179381800782    10.7347803842740959     4.4432436755892795
43     1          7.1949382360849885     3.2211943148845421     4.5076116419162240
44     1          4.2804361607593853     7.2491074077472666     9.4131994756376702
45     1          3.8136736049386304     4.3706509135650036     5.0756793447408368
ITEM: TIMESTEP energy, energy_weight, force_weight, nsims
4        -88473.9964539326902013    1    1   99
ITEM: NUMBER OF ATOMS
46        
ITEM: BOX BOUNDS xy xz yz pp pp pp
    0.0000000000000000     11.9999937223983011      0.0000000000000007
    0.0000000000000000     11.9999937223982993      0.0000000000000007
    0.0000000000000000     11.9999937223982993      0.0000000000000007
ITEM: ATOMS id type x y z
1      1          0.4650357567241013     1.8515954313679410     0.8555551524302260
2      1         10.7787939612491073     2.4606443127539168     4.7322167244177251
3      1          4.5994715938611828     4.5079956417153406     6.3262970905004874
4      1          0.6479252610484293     8.4891375590456448    11.5819763410772989
5      1          4.6289087784615974     5.8986017142423730     3.4389438009724378
6      1          7.1500246595807955     1.1570837946904169     2.6382046198661273
7      1          9.9732295826670221     4.9439878136331208     2.1601824699356462
8      1          6.1413699872420953     1.1744105856261877    10.8623595175331449
9      1          3.9715719223366919    10.9800086559869108     6.0088060565907613
10     1         10.6274596404171984    10.7288391873821372     4.9495798107077587
11     1          6.0603592296215574     8.0950925651838794    10.8331131328329171
12     1          1.1981453732097196     0.9327055120702691     8.3117572518392713
13     1         10.1447442929418887     3.7295584489421070     7.8277627050331517
14     1          3.7650172303924223     9.6860169329176511     9.7052169228734897
15     1          5.6837670266296483     7.9157034590283759     6.7302036792033197
16     1          9.2083907827800093     6.1278495943150695    10.6257616413054787
17     1          4.2352045844215489     3.9769611195174206    10.9385822776584494
18     1         11.7548338506497032     8.0341877970452202     2.7684213517453600
19     1          3.4737269827761814     2.1511824746438477     2.3922371485400129
20     1          8.1129065558647788     0.3354190245309883     7.3686453452129372
21     1          3.9156015516166813    11.1713833558723454     2.4490475188205907
22     1          9.5269306161410725    11.1793333517134368     1.4323312506991834
23     1          9.5978877790209864     5.6102682650793314     5.0967717337066967
24     1          1.3986652683109950     9.6025833765645601     7.5887612300628904
25     1         10.7213763912861761     9.9075524170249629     9.2896619402643239
26     1          8.6217110896919564     8.4918243576400911     5.7195762078966572
27     1          9.1786511983377910     1.6093491580951418    10.4025917580531768
28     1          1.2213917610487492     5.0058513812702010     7.6386632039574831
29     1          1.7722562728729321     4.6519715663966759     2.4452339208156122
30     1          6.9430523678549863     8.2435216875355959     2.3363951777528320
31     1          1.1982053731783313     3.6812392742194984    10.3792565702606012
32     1          1.5134188082795454     0.2322670784932525     4.3124365440189045
33     1          7.2319078167449531     3.8228236001519593     8.5626855205702253
34     1          7.6502563978926919     3.7571752344948348     0.4546305621674097
35     1          4.7151395333513806     1.6908435154626933     7.4236137164571279
36     1          3.5566901393753545     7.2275866190055185     0.4027125893274535
37     1          2.5507246656298439     8.7801158068251031     4.1844230109871043
38     1          2.9330300656329866     0.8722015437219368    11.0721278077962726
39     1         11.7341518614691473     7.5983528250452022     5.8166237571278092
40     1          7.5959900262812630     2.8336161176397781     5.4459235510535970
41     1          3.6936280677385023     6.7256688815756256     9.0511704650272637
42     1          7.0701527013645133    10.7661795678481234     4.4649564642305872
43     1          7.9842882231493713    10.6168588459628328    10.5821044641440221
44     1          0.9628854962821009    10.9103678924183427     1.3825528767399309
45     1          9.5633025971136618     8.2532080824683174     0.7154660257155759
46     1          2.1060156982721128     3.2916066780494591     5.1084525275960786
ITEM: TIMESTEP energy, energy_weight, force_weight, nsims
5        -84625.0636127861216664    1    1   99
ITEM: NUMBER OF ATOMS
44        
ITEM: BOX BOUNDS xy xz yz pp pp pp
    0.0000000000000000     11.9999937223983011      0.0000000000000007
    0.0000000000000000     11.9999937223982993      0.0000000000000007
    0.0000000000000000     11.9999937223982993      0.0000000000000007
ITEM: ATOMS id type x y z
1      1          6.8753172032895380     7.9442130441140506     4.0616486752145029
2      1          3.7860568193859030     3.2578698956983083     5.4417007532626860
3      1          3.9191055497836218     2.1148212936656088    10.6677184193564720
4      1          9.5062402269649144     2.0532853258571500     4.4735748597220129
5      1         10.6391908342802157     8.8190197864731186     6.4408310305839178
6      1          6.8091972378791228     0.4706937537642121     5.9799508716858822
7      1          4.0969406567520759    10.7783511614807530    11.5396391632253046
8      1          0.4336737731306133     6.1033768071176118     9.0212532806779517
9      1          9.8012780726206596    11.6479595065592783    11.7273142650461253
10     1          9.8744456343442391    11.0323394286109178     2.8133997282156535
11     1          1.8215258470983553     6.0587908304420388     2.8810628928187683
12     1          3.7772836239754577    10.2984030125578272     5.0129613775507220
13     1         11.7790378379877794     1.0702878400963098     9.4555702534720858
14     1          1.4378308478221586    11.0066126420694665     1.7037111087312209
15     1          5.7669401831189635     8.2362580913354293     9.6035073760811862
16     1          6.4485398265511868     0.3503542167178852     9.6152037699624060
17     1          6.6155437391858039     4.1533442272454639     2.3466971723635108
18     1         11.7025678779917968     2.6460982157367208     6.4903070047013660
19     1          7.6058036211474400     9.4578814522630221     0.2820274524619216
20     1          9.1036692375633859     5.2510496529987103    11.7150478714630921
21     1          5.6055462675495678     5.8122101594367104     6.1763775689284488
22     1         10.7057595994558472     5.2730972414648720     4.0473446826974042
23     1          2.4693167082170935     8.0804645728362754    10.6662604201192028
24     1          1.5017068144064849    10.1491578906329849     8.6644826673167028
25     1          5.3318552107265962     6.1032652071759932     0.2843926512246063
26     1          2.8626777024366823     2.7220305760139412     1.4667856326749333
27     1         11.5203599733108994     2.8750472959657305     2.0621065212424852
28     1          6.5021977984808901     3.2866782806276706     8.8168441876112489
29     1          0.0752711606231156    11.7411646578005175     5.6414622487607051
30     1         11.3341932707009860     7.4807492865675824     0.2812594528636880
31     1          9.8222216616643614     4.6774019530931819     7.8029167180309269
32     1          2.5809118498379089     6.9844931461759181     6.8868227972705736
33     1          5.3445608040798716    10.9384070777500995     2.4440279214465117
34     1          2.6850057953828528     3.8670771770014198     8.4166107969868413
35     1          9.4719634448962573     8.6851538565029056    10.0260799550192079
36     1          7.6120532178780644     9.5018542292593775     7.4741972899951525
37     1          0.6570296562856129     3.6540928884206889    11.0790074041973234
38     1          3.4169658124698650     0.6628712532296763     7.8959118693820249
39     1          8.0867393695537189     2.1069768977692771    11.9952945248566074
40     1          0.2620654629047119     9.0512676649764163     3.6775444761523719
41     1          9.3911830871551860     0.1877543017793883     7.5308948603347412
42     1          3.5143793615095502     8.6626886682552016     1.7148147029225562
43     1          2.2296312336046542     1.1446542011927567     3.9590775288729305
44     1          9.6383049578773949     7.8385686993801720     2.7566421579074540
ITEM: TIMESTEP energy, energy_weight, force_weight, nsims
6        -86549.2350960436742753    1    1   99
ITEM: NUMBER OF ATOMS
45        
ITEM: BOX BOUNDS xy xz yz pp pp pp
    0.0000000000000000     11.9999937223983011      0.0000000000000007
    0.0000000000000000     11.9999937223982993      0.0000000000000007
    0.0000000000000000     11.9999937223982993      0.0000000000000007
ITEM: ATOMS id type x y z
1      1          8.6043938987511659     9.2873159414915953     0.7977007826957991
2      1          4.3354993319539821     4.6080479893745805     6.4298018363536622
3      1          6.2217735451802811     4.7581607108455506    10.5785188660197704
4      1         10.4791769179888945    10.5948616574703021     4.1349518368671445
5      1          3.3053298708703935     4.0456946835605736     3.6212141056206897
6      1          7.3447425577172929     0.3286570280684168     5.1124329255137981
7      1          5.0633433511942112     8.3628652251029649     9.7509476989501760
8      1          0.0512891731689026     6.7429608725296015    10.6729120166395273
9      1          7.0530119103314393     4.1994530031244084     3.5906417216141358
10     1         11.3825136454229661     6.8088780380461067     3.9453435360576457
11     1          0.8644063477998669    10.9407374765309910    10.6574368247351217
12     1          2.8711496980046949     9.2059643840493415     3.2374147063991083
13     1          3.8553147831547250     1.7110347049000008    10.8775755095731483
14     1          9.2827103439009395     4.7858686963505690     9.9965755704539472
15     1          6.3213050931119694     1.6359063442021815     8.3160220496082111
16     1          3.3968994229672709     1.1318910078696138     6.2256591431475945
17     1          8.7511826219610285     9.9535399929673094     9.6462849537027910
18     1          9.6715857404670960     3.9317799431532192     1.3760344801499238
19     1          0.9920358810325507     2.9362544639461952    11.7107350737192597
20     1         11.6296439161407825     2.0090173490152230     8.7438386258029208
21     1          4.4383860781304536    10.1718174787789906     5.9809972711384756
22     1          5.7204510074390198    11.2272025266714550     0.0719447623632668
23     1          9.9301628051967050     0.9278407146152088     0.8783047405291485
24     1          0.8297815659132588     5.3343284094327830     6.8122848362638955
25     1          5.7146502104736125    10.3622765791434084     3.2013091252871564
26     1          7.6296788086575225     7.5187376666945784     6.4102778465673191
27     1          9.8458532493018804     3.2962422756244218     5.5824606796264176
28     1          3.6436708938727862     0.8749927422617666     2.6754490003823350
29     1          0.0620963675152945    10.5238984945935279     7.2663717987156806
30     1          0.0809951576286995     0.9496939031830682     5.3503208010666219
31     1          3.9796107181313265     6.1313379924901721     0.1175003385316074
32     1         10.5127865004065892     7.8379554997009571     7.1963338353549036
33     1          6.7679952594332686     2.1195768911777950     1.0559346476049494
34     1          3.8648319781759590    11.4962219859382948     8.8232845842420602
35     1          2.6050978371854026     4.6720943558697652     9.4216210712320496
36     1          8.2269340962131263     7.1467138613127865     3.0698599940526328
37     1          5.4315151585911137     7.5044588741642970     4.2593053718136131
38     1          0.3416866212521969    11.0623298129219361     1.7987042590370983
39     1          2.3502179705216628     8.2466776858845883     8.1962837122473751
40     1          0.7341080159633216     7.7592895408537750     1.4118400614188162
41     1          7.3518021540241785     4.7134427342390328     7.6767727840210753
42     1          8.7869450032525194     1.4516068406154718    10.0472155439624675
43     1          0.3999069907951567     3.6342184988176531     2.6267230258725367
44     1          3.1049011757214089     9.2158787788627876     0.1544111192223323
45     1          9.5410474087561017     0.3356770243960199     7.2438766104836745
ITEM: TIMESTEP energy, energy_weight, force_weight, nsims
7        -86549.2210280239814892    1    1   99
ITEM: NUMBER OF ATOMS
45        
ITEM: BOX BOUNDS xy xz yz pp pp pp
    0.0000000000000000     11.9999937223983011      0.0000000000000007
    0.0000000000000000     11.9999937223982993      0.0000000000000007
    0.0000000000000000     11.9999937223982993      0.0000000000000007
ITEM: ATOMS id type x y z
1      1          5.7847097738230913     1.0533738489445896     4.7979706900196071
2      1          2.5435966693587391     9.5789085889496413     5.5727718846949532
3      1          8.5748751141934356     3.6486760912543987     6.1777539682084077
4      1          7.5317948598639202     9.7635080923794106     8.0187414051257484
5      1          3.6965056662331337     5.1277137175199003     1.8060854551757455
6      1          5.0042673820988455    11.0123114390882346     1.4152456596372329
7      1         11.8340242092225534     0.6458300621444986     7.0788010968402455
8      1          8.9165053354751382    11.2257673274222558     2.5331254748365746
9      1          6.4605506202679353     2.0368285344662529     8.1973637116823905
10     1         11.2415641191584204     9.5750133909873512    10.6237276423695342
11     1          0.0365639808721476     3.8994063600889328     0.6868904406644287
12     1          5.3724703894794246     7.4314017123829643     4.9682458009429498
13     1          7.3608033493153497     0.9408679078002443     0.2960938451033168
14     1          1.7711186734680491    11.5785131428890136     2.2770504087980834
15     1          8.7096278436997370     8.0022714137417559     5.3522648000496504
16     1          0.4966881401656713     5.3281340126732806     8.1204209519337454
17     1          2.3671331616727551     9.6350793595648145    11.0683034097969450
18     1         10.8731631118814214     2.1357036827413260     3.6483388914307984
19     1          7.3055565782167999     9.2285975722091571    11.0007122451561639
20     1          3.2619618935576469     0.8150563736165038     9.9994663689416736
21     1         10.3549349829840427     6.4693742156520146     0.7868899883512905
22     1          8.7476234238229651     4.1036594532372472    10.3024458104429026
23     1         11.3077068845569073    10.0210651576426173     5.6173890613542019
24     1          3.1068739746893703     2.1901992542328537     1.0067430733387221
25     1          5.2532780518329592     4.4884428519440647     6.6628405144432641
26     1          5.2852004351332829     7.4316345122611791     8.2418008884358045
27     1          0.6411740645802080     6.5173045905780178     2.9761568430719136
28     1          2.2432920264582328     3.8476947871410023     5.5085527182901668
29     1          6.4963082015619378     4.0675682721177617     3.6489832910936921
30     1          6.7269972808806946     6.7924188466564654     2.0852209091505687
31     1         10.1823294732798111     1.2129581654606478    10.5175756979011972
32     1          1.1749313853537398     8.2371892908482867     8.4224679939227460
33     1          5.4778771343375992     5.3327072102808870    10.4529365317161282
34     1         10.2423138418999642     7.2986337818383493     8.8073821925611373
35     1          3.3447618502421945     0.4383573706804654     6.4607834201461500
36     1          2.5116070860935698     5.9080937092767893    10.7600967710302395
37     1          9.0831876482779954     0.4124877842137192     5.3674915920840016
38     1          4.4816124555172765     7.7500711456762286     0.0980231487207828
39     1          8.8600417650131380     3.3497034476570779     1.7707766736469603
40     1          4.1437046322882614    10.2820518211116863     8.4224439939352997
41     1         11.2959936906844760     9.1853843948154275     1.7887538642424856
42     1         11.0443310223377100     5.0745825453146098     5.1800564901376296
43     1          2.8610397032935744     3.4672133861836634     8.6024870997486751
44     1          2.9036300810131110     8.4799095638731199     2.7345213694795851
45     1          6.7618656626398668    10.0730383304536968     4.3047397480453578
ITEM: TIMESTEP energy, energy_weight, force_weight, nsims
8        -84625.0914103157265345    1    1   99
ITEM: NUMBER OF ATOMS
44        
ITEM: BOX BOUNDS xy xz yz pp pp pp
    0.0000000000000000     11.9999937223983011      0.0000000000000007
    0.0000000000000000     11.9999937223982993      0.0000000000000007
    0.0000000000000000     11.9999937223982993      0.0000000000000007
ITEM: ATOMS id type x y z
1      1          9.9350528026385838    11.3241552759521991    11.8706229900764964
2      1          3.8952219622779327     4.3817185077751715     3.1389667579005529
3      1         11.1978673420176786     9.0846360475202879     5.4194647648950811
4      1          9.6528249502814969    11.4057912332456759     7.9822026242404185
5      1          3.7572244344690970     7.2297322178830816    10.9921094496565761