ITEM: TIMESTEP energy, energy_weight, force_weight, nsims
1        -38476.7596825624641497    1    1   72
ITEM: NUMBER OF ATOMS
20        
ITEM: BOX BOUNDS xy xz yz pp pp pp
  -15.9549586459745001      3.1909917291949004      0.0000000000000003
    0.0000000000000000      5.1819695357335807    -15.9549586459745001
    0.0000000000000000     27.6347988867270438      0.0000000000000029
ITEM: ATOMS id type x y z
1      1         -1.5954958645974500     0.0000000000000000     3.6846397451972153
2      1          1.5954958645974500     2.5909844487676166     1.8423200321481941
3      1         -3.1909917291948999     0.0000000000000000     6.4481196338699203
4      1         -0.0000000000000000     2.5909844487676166     4.6057999208208988
5      1         -4.7864875937923497     0.0000000000000000     9.2115995225426257
6      1         -1.5954958645974500     2.5909844487676166     7.3692798094936043
7      1         -6.3819834583897999     0.0000000000000000    11.9750794112153294
8      1         -3.1909917291948999     2.5909844487676166    10.1327596981663088
9      1         -7.9774793229872500     0.0000000000000000    14.7385592998880348
10     1         -4.7864875937923497     2.5909844487676166    12.8962395868390143
11     1         -9.5729751875846993     0.0000000000000000    17.5020395076599122
12     1         -6.3819834583897999     2.5909844487676166    15.6597194755117179
13     1        -11.1684710521821504     0.0000000000000000    20.2655193963326177
14     1         -7.9774793229872500     2.5909844487676166    18.4231993641844234
15     1        -12.7639669167795997     0.0000000000000000    23.0289992850053196
16     1         -9.5729751875846993     2.5909844487676166    21.1866792528571288
17     1        -14.3594627813770490     0.0000000000000000    25.7924791736780286
18     1        -11.1684710521821504     2.5909844487676166    23.9501591415298343
19     1          0.0000000000000000     0.0000000000000000     0.9211598565245107
20     1        -12.7639669167795997     2.5909844487676166    26.7136390302025326
ITEM: TIMESTEP energy, energy_weight, force_weight, nsims
2        -38476.7502196634013671    1    1   72
ITEM: NUMBER OF ATOMS
20        
ITEM: BOX BOUNDS xy xz yz pp pp pp
  -16.0049582953792573      3.1909917291949004      0.0000000000000003
    0.0000000000000000      5.1819695357335807    -16.0049582953792573
    0.0000000000000000     27.7214024022573895      0.0000000000000029
ITEM: ATOMS id type x y z
1      1         -1.5954958645974500     0.0000000000000000     3.6846397451972153
2      1          1.5954958645974500     2.5909844487676166     1.8423200321481941
3      1         -3.1909917291948999     0.0000000000000000     6.4481196338699203
4      1         -0.0000000000000000     2.5909844487676166     4.6057999208208988
5      1         -4.7864875937923497     0.0000000000000000     9.2115995225426257
6      1         -1.5954958645974500     2.5909844487676166     7.3692798094936043
7      1         -6.3819834583897999     0.0000000000000000    11.9750794112153294
8      1         -3.1909917291948999     2.5909844487676166    10.1327596981663088
9      1         -7.9774793229872500     0.0000000000000000    14.7385592998880348
10     1         -4.7864875937923497     2.5909844487676166    12.8962395868390143
11     1         -9.5729751875846993     0.0000000000000000    17.5020395076599122
12     1         -6.3819834583897999     2.5909844487676166    15.6597194755117179
13     1        -11.1684710521821504     0.0000000000000000    20.2655193963326177
14     1         -7.9774793229872500     2.5909844487676166    18.4231993641844234
15     1        -12.7639669167795997     0.0000000000000000    23.0289992850053196
16     1         -9.5729751875846993     2.5909844487676166    21.1866792528571288
17     1        -14.3594627813770490     0.0000000000000000    25.7924791736780286
18     1        -11.1684710521821504     2.5909844487676166    23.9501591415298343
19     1          0.0000000000000000     0.0000000000000000     0.9211598565245107
20     1        -12.7639669167795997     2.5909844487676166    26.7136390302025326
ITEM: TIMESTEP energy, energy_weight, force_weight, nsims
3        -38476.7241495132257114    1    1   72
ITEM: NUMBER OF ATOMS
20        
ITEM: BOX BOUNDS xy xz yz pp pp pp
  -16.0549579447840109      3.1909917291949004      0.0000000000000003
    0.0000000000000000      5.1819695357335807    -16.0549579447840109
    0.0000000000000000     27.8080027267960084      0.0000000000000029
ITEM: ATOMS id type x y z
1      1         -1.5954958645974500     0.0000000000000000     3.6846397451972153
2      1          1.5954958645974500     2.5909844487676166     1.8423200321481941
3      1         -3.1909917291948999     0.0000000000000000     6.4481196338699203
4      1         -0.0000000000000000     2.5909844487676166     4.6057999208208988
5      1         -4.7864875937923497     0.0000000000000000     9.2115995225426257
6      1         -1.5954958645974500     2.5909844487676166     7.3692798094936043
7      1         -6.3819834583897999     0.0000000000000000    11.9750794112153294
8      1         -3.1909917291948999     2.5909844487676166    10.1327596981663088
9      1         -7.9774793229872500     0.0000000000000000    14.7385592998880348
10     1         -4.7864875937923497     2.5909844487676166    12.8962395868390143
11     1         -9.5729751875846993     0.0000000000000000    17.5020395076599122
12     1         -6.3819834583897999     2.5909844487676166    15.6597194755117179
13     1        -11.1684710521821504     0.0000000000000000    20.2655193963326177
14     1         -7.9774793229872500     2.5909844487676166    18.4231993641844234
15     1        -12.7639669167795997     0.0000000000000000    23.0289992850053196
16     1         -9.5729751875846993     2.5909844487676166    21.1866792528571288
17     1        -14.3594627813770490     0.0000000000000000    25.7924791736780286
18     1        -11.1684710521821504     2.5909844487676166    23.9501591415298343
19     1          0.0000000000000000     0.0000000000000000     0.9211598565245107
20     1        -12.7639669167795997     2.5909844487676166    26.7136390302025326
ITEM: TIMESTEP energy, energy_weight, force_weight, nsims
4        -38476.6855927336509922    1    1   72
ITEM: NUMBER OF ATOMS
20        
ITEM: BOX BOUNDS xy xz yz pp pp pp
  -16.1049575941887539      3.1909917291949004      0.0000000000000003
    0.0000000000000000      5.1819695357335807    -16.1049575941887539
    0.0000000000000000     27.8946062423263683      0.0000000000000030
ITEM: ATOMS id type x y z
1      1         -1.5954958645974500     0.0000000000000000     3.6846397451972153
2      1          1.5954958645974500     2.5909844487676166     1.8423200321481941
3      1         -3.1909917291948999     0.0000000000000000     6.4481196338699203
4      1         -0.0000000000000000     2.5909844487676166     4.6057999208208988
5      1         -4.7864875937923497     0.0000000000000000     9.2115995225426257
6      1         -1.5954958645974500     2.5909844487676166     7.3692798094936043
7      1         -6.3819834583897999     0.0000000000000000    11.9750794112153294
8      1         -3.1909917291948999     2.5909844487676166    10.1327596981663088
9      1         -7.9774793229872500     0.0000000000000000    14.7385592998880348
10     1         -4.7864875937923497     2.5909844487676166    12.8962395868390143
11     1         -9.5729751875846993     0.0000000000000000    17.5020395076599122
12     1         -6.3819834583897999     2.5909844487676166    15.6597194755117179
13     1        -11.1684710521821504     0.0000000000000000    20.2655193963326177
14     1         -7.9774793229872500     2.5909844487676166    18.4231993641844234
15     1        -12.7639669167795997     0.0000000000000000    23.0289992850053196
16     1         -9.5729751875846993     2.5909844487676166    21.1866792528571288
17     1        -14.3594627813770490     0.0000000000000000    25.7924791736780286
18     1        -11.1684710521821504     2.5909844487676166    23.9501591415298343
19     1          0.0000000000000000     0.0000000000000000     0.9211598565245107
20     1        -12.7639669167795997     2.5909844487676166    26.7136390302025326
ITEM: TIMESTEP energy, energy_weight, force_weight, nsims
5        -38476.6379048979797517    1    1   72
ITEM: NUMBER OF ATOMS
20        
ITEM: BOX BOUNDS xy xz yz pp pp pp
  -16.1549572435935147      3.1909917291949004      0.0000000000000003
    0.0000000000000000      5.1819695357335807    -16.1549572435935147
    0.0000000000000000     27.9812097578567212      0.0000000000000030
ITEM: ATOMS id type x y z
1      1         -1.5954958645974500     0.0000000000000000     3.6846397451972153
2      1          1.5954958645974500     2.5909844487676166     1.8423200321481941
3      1         -3.1909917291948999     0.0000000000000000     6.4481196338699203
4      1         -0.0000000000000000     2.5909844487676166     4.6057999208208988
5      1         -4.7864875937923497     0.0000000000000000     9.2115995225426257
6      1         -1.5954958645974500     2.5909844487676166     7.3692798094936043
7      1         -6.3819834583897999     0.0000000000000000    11.9750794112153294
8      1         -3.1909917291948999     2.5909844487676166    10.1327596981663088
9      1         -7.9774793229872500     0.0000000000000000    14.7385592998880348
10     1         -4.7864875937923497     2.5909844487676166    12.8962395868390143
11     1         -9.5729751875846993     0.0000000000000000    17.5020395076599122
12     1         -6.3819834583897999     2.5909844487676166    15.6597194755117179
13     1        -11.1684710521821504     0.0000000000000000    20.2655193963326177
14     1         -7.9774793229872500     2.5909844487676166    18.4231993641844234
15     1        -12.7639669167795997     0.0000000000000000    23.0289992850053196
16     1         -9.5729751875846993     2.5909844487676166    21.1866792528571288
17     1        -14.3594627813770490     0.0000000000000000    25.7924791736780286
18     1        -11.1684710521821504     2.5909844487676166    23.9501591415298343
19     1          0.0000000000000000     0.0000000000000000     0.9211598565245107
20     1        -12.7639669167795997     2.5909844487676166    26.7136390302025326
ITEM: TIMESTEP energy, energy_weight, force_weight, nsims
6        -38476.5837833358746138    1    1   72
ITEM: NUMBER OF ATOMS
20        
ITEM: BOX BOUNDS xy xz yz pp pp pp
  -16.2049568929982755      3.1909917291949004      0.0000000000000003
    0.0000000000000000      5.1819695357335807    -16.2049568929982755
    0.0000000000000000     28.0678100823953365      0.0000000000000030
ITEM: ATOMS id type x y z
1      1         -1.5954958645974500     0.0000000000000000     3.6846397451972153
2      1          1.5954958645974500     2.5909844487676166     1.8423200321481941
3      1         -3.1909917291948999     0.0000000000000000     6.4481196338699203
4      1         -0.0000000000000000     2.5909844487676166     4.6057999208208988
5      1         -4.7864875937923497     0.0000000000000000     9.2115995225426257
6      1         -1.5954958645974500     2.5909844487676166     7.3692798094936043
7      1         -6.3819834583897999     0.0000000000000000    11.9750794112153294
8      1         -3.1909917291948999     2.5909844487676166    10.1327596981663088
9      1         -7.9774793229872500     0.0000000000000000    14.7385592998880348
10     1         -4.7864875937923497     2.5909844487676166    12.8962395868390143
11     1         -9.5729751875846993     0.0000000000000000    17.5020395076599122
12     1         -6.3819834583897999     2.5909844487676166    15.6597194755117179
13     1        -11.1684710521821504     0.0000000000000000    20.2655193963326177
14     1         -7.9774793229872500     2.5909844487676166    18.4231993641844234
15     1        -12.7639669167795997     0.0000000000000000    23.0289992850053196
16     1         -9.5729751875846993     2.5909844487676166    21.1866792528571288
17     1        -14.3594627813770490     0.0000000000000000    25.7924791736780286
18     1        -11.1684710521821504     2.5909844487676166    23.9501591415298343
19     1          0.0000000000000000     0.0000000000000000     0.9211598565245107
20     1        -12.7639669167795997     2.5909844487676166    26.7136390302025326
ITEM: TIMESTEP energy, energy_weight, force_weight, nsims
7        -38476.5253867273786454    1    1   72
ITEM: NUMBER OF ATOMS
20        
ITEM: BOX BOUNDS xy xz yz pp pp pp
  -16.2549597333947560      3.1909917291949004      0.0000000000000003
    0.0000000000000000      5.1819695357335807    -16.2549597333947560
    0.0000000000000000     28.1544135979256893      0.0000000000000030
ITEM: ATOMS id type x y z
1      1         -1.5954958645974500     0.0000000000000000     3.6846397451972153
2      1          1.5954958645974500     2.5909844487676166     1.8423200321481941
3      1         -3.1909917291948999     0.0000000000000000     6.4481196338699203
4      1         -0.0000000000000000     2.5909844487676166     4.6057999208208988
5      1         -4.7864875937923497     0.0000000000000000     9.2115995225426257
6      1         -1.5954958645974500     2.5909844487676166     7.3692798094936043
7      1         -6.3819834583897999     0.0000000000000000    11.9750794112153294
8      1         -3.1909917291948999     2.5909844487676166    10.1327596981663088
9      1         -7.9774793229872500     0.0000000000000000    14.7385592998880348
10     1         -4.7864875937923497     2.5909844487676166    12.8962395868390143
11     1         -9.5729751875846993     0.0000000000000000    17.5020395076599122
12     1         -6.3819834583897999     2.5909844487676166    15.6597194755117179
13     1        -11.1684710521821504     0.0000000000000000    20.2655193963326177
14     1         -7.9774793229872500     2.5909844487676166    18.4231993641844234
15     1        -12.7639669167795997     0.0000000000000000    23.0289992850053196
16     1         -9.5729751875846993     2.5909844487676166    21.1866792528571288
17     1        -14.3594627813770490     0.0000000000000000    25.7924791736780286
18     1        -11.1684710521821504     2.5909844487676166    23.9501591415298343
19     1          0.0000000000000000     0.0000000000000000     0.9211598565245107
20     1        -12.7639669167795997     2.5909844487676166    26.7136390302025326
ITEM: TIMESTEP energy, energy_weight, force_weight, nsims
8        -38476.4644566018469050    1    1   72
ITEM: NUMBER OF ATOMS
20        
ITEM: BOX BOUNDS xy xz yz pp pp pp
  -16.3049593827995096      3.1909917291949004      0.0000000000000003
    0.0000000000000000      5.1819695357335807    -16.3049593827995096
    0.0000000000000000     28.2410171134560350      0.0000000000000030
ITEM: ATOMS id type x y z
1      1         -1.5954958645974500     0.0000000000000000     3.6846397451972153
2      1          1.5954958645974500     2.5909844487676166     1.8423200321481941
3      1         -3.1909917291948999     0.0000000000000000     6.4481196338699203
4      1         -0.0000000000000000     2.5909844487676166     4.6057999208208988
5      1         -4.7864875937923497     0.0000000000000000     9.2115995225426257
6      1         -1.5954958645974500     2.5909844487676166     7.3692798094936043
7      1         -6.3819834583897999     0.0000000000000000    11.9750794112153294
8      1         -3.1909917291948999     2.5909844487676166    10.1327596981663088
9      1         -7.9774793229872500     0.0000000000000000    14.7385592998880348
10     1         -4.7864875937923497     2.5909844487676166    12.8962395868390143
11     1         -9.5729751875846993     0.0000000000000000    17.5020395076599122
12     1         -6.3819834583897999     2.5909844487676166    15.6597194755117179
13     1        -11.1684710521821504     0.0000000000000000    20.2655193963326177
14     1         -7.9774793229872500     2.5909844487676166    18.4231993641844234
15     1        -12.7639669167795997     0.0000000000000000    23.0289992850053196
16     1         -9.5729751875846993     2.5909844487676166    21.1866792528571288
17     1        -14.3594627813770490     0.0000000000000000    25.7924791736780286
18     1        -11.1684710521821504     2.5909844487676166    23.9501591415298343
19     1          0.0000000000000000     0.0000000000000000     0.9211598565245107
20     1        -12.7639669167795997     2.5909844487676166    26.7136390302025326
ITEM: TIMESTEP energy, energy_weight, force_weight, nsims
9        -38476.4024240065919003    1    1   72
ITEM: NUMBER OF ATOMS
20        
ITEM: BOX BOUNDS xy xz yz pp pp pp
  -16.3549590322042597      3.1909917291949004      0.0000000000000003
    0.0000000000000000      5.1819695357335807    -16.3549590322042597
    0.0000000000000000     28.3276174379946575      0.0000000000000030
ITEM: ATOMS id type x y z
1      1         -1.5954958645974500     0.0000000000000000     3.6846397451972153
2      1          1.5954958645974500     2.5909844487676166     1.8423200321481941
3      1         -3.1909917291948999     0.0000000000000000     6.4481196338699203
4      1         -0.0000000000000000     2.5909844487676166     4.6057999208208988
5      1         -4.7864875937923497     0.0000000000000000     9.2115995225426257
6      1         -1.5954958645974500     2.5909844487676166     7.3692798094936043
7      1         -6.3819834583897999     0.0000000000000000    11.9750794112153294
8      1         -3.1909917291948999     2.5909844487676166    10.1327596981663088
9      1         -7.9774793229872500     0.0000000000000000    14.7385592998880348
10     1         -4.7864875937923497     2.5909844487676166    12.8962395868390143
11     1         -9.5729751875846993     0.0000000000000000    17.5020395076599122
12     1         -6.3819834583897999     2.5909844487676166    15.6597194755117179
13     1        -11.1684710521821504     0.0000000000000000    20.2655193963326177
14     1         -7.9774793229872500     2.5909844487676166    18.4231993641844234
15     1        -12.7639669167795997     0.0000000000000000    23.0289992850053196
16     1         -9.5729751875846993     2.5909844487676166    21.1866792528571288
17     1        -14.3594627813770490     0.0000000000000000    25.7924791736780286
18     1        -11.1684710521821504     2.5909844487676166    23.9501591415298343
19     1          0.0000000000000000     0.0000000000000000     0.9211598565245107
20     1        -12.7639669167795997     2.5909844487676166    26.7136390302025326
ITEM: TIMESTEP energy, energy_weight, force_weight, nsims
10       -38476.3404055612700176    1    1   72
ITEM: NUMBER OF ATOMS
20        
ITEM: BOX BOUNDS xy xz yz pp pp pp
  -16.4049586816090205      3.1909917291949004      0.0000000000000003
    0.0000000000000000      5.1819695357335807    -16.4049586816090205
    0.0000000000000000     28.4142209535250103      0.0000000000000030
ITEM: ATOMS id type x y z
1      1         -1.5954958645974500     0.0000000000000000     3.6846397451972153
2      1          1.5954958645974500     2.5909844487676166     1.8423200321481941
3      1         -3.1909917291948999     0.0000000000000000     6.4481196338699203
4      1         -0.0000000000000000     2.5909844487676166     4.6057999208208988
5      1         -4.7864875937923497     0.0000000000000000     9.2115995225426257
6      1         -1.5954958645974500     2.5909844487676166     7.3692798094936043
7      1         -6.3819834583897999     0.0000000000000000    11.9750794112153294
8      1         -3.1909917291948999     2.5909844487676166    10.1327596981663088
9      1         -7.9774793229872500     0.0000000000000000    14.7385592998880348
10     1         -4.7864875937923497     2.5909844487676166    12.8962395868390143
11     1         -9.5729751875846993     0.0000000000000000    17.5020395076599122
12     1         -6.3819834583897999     2.5909844487676166    15.6597194755117179
13     1        -11.1684710521821504     0.0000000000000000    20.2655193963326177
14     1         -7.9774793229872500     2.5909844487676166    18.4231993641844234
15     1        -12.7639669167795997     0.0000000000000000    23.0289992850053196
16     1         -9.5729751875846993     2.5909844487676166    21.1866792528571288
17     1        -14.3594627813770490     0.0000000000000000    25.7924791736780286
18     1        -11.1684710521821504     2.5909844487676166    23.9501591415298343
19     1          0.0000000000000000     0.0000000000000000     0.9211598565245107
20     1        -12.7639669167795997     2.5909844487676166    26.7136390302025326
ITEM: TIMESTEP energy, energy_weight, force_weight, nsims
11       -38476.2792716223775642    1    1   72
ITEM: NUMBER OF ATOMS
20        
ITEM: BOX BOUNDS xy xz yz pp pp pp
  -16.4549583310137741      3.1909917291949004      0.0000000000000003
    0.0000000000000000      5.1819695357335807    -16.4549583310137741
    0.0000000000000000     28.5008244690553596      0.0000000000000030
ITEM: ATOMS id type x y z
1      1         -1.5954958645974500     0.0000000000000000     3.6846397451972153
2      1          1.5954958645974500     2.5909844487676166     1.8423200321481941
3      1         -3.1909917291948999     0.0000000000000000     6.4481196338699203
4      1         -0.0000000000000000     2.5909844487676166     4.6057999208208988
5      1         -4.7864875937923497     0.0000000000000000     9.2115995225426257
6      1         -1.5954958645974500     2.5909844487676166     7.3692798094936043
7      1         -6.3819834583897999     0.0000000000000000    11.9750794112153294
8      1         -3.1909917291948999     2.5909844487676166    10.1327596981663088
9      1         -7.9774793229872500     0.0000000000000000    14.7385592998880348
10     1         -4.7864875937923497     2.5909844487676166    12.8962395868390143
11     1         -9.5729751875846993     0.0000000000000000    17.5020395076599122
12     1         -6.3819834583897999     2.5909844487676166    15.6597194755117179
13     1        -11.1684710521821504     0.0000000000000000    20.2655193963326177
14     1         -7.9774793229872500     2.5909844487676166    18.4231993641844234
15     1        -12.7639669167795997     0.0000000000000000    23.0289992850053196
16     1         -9.5729751875846993     2.5909844487676166    21.1866792528571288
17     1        -14.3594627813770490     0.0000000000000000    25.7924791736780286
18     1        -11.1684710521821504     2.5909844487676166    23.9501591415298343
19     1          0.0000000000000000     0.0000000000000000     0.9211598565245107
20     1        -12.7639669167795997     2.5909844487676166    26.7136390302025326
ITEM: TIMESTEP energy, energy_weight, force_weight, nsims
12       -38476.2197023387634545    1    1   72
ITEM: NUMBER OF ATOMS
20        
ITEM: BOX BOUNDS xy xz yz pp pp pp
  -16.5049579804185242      3.1909917291949004      0.0000000000000003
    0.0000000000000000      5.1819695357335807    -16.5049579804185242
    0.0000000000000000     28.5874247935939856      0.0000000000000030
ITEM: ATOMS id type x y z
1      1         -1.5954958645974500     0.0000000000000000     3.6846397451972153
2      1          1.5954958645974500     2.5909844487676166     1.8423200321481941
3      1         -3.1909917291948999     0.0000000000000000     6.4481196338699203
4      1         -0.0000000000000000     2.5909844487676166     4.6057999208208988
5      1         -4.7864875937923497     0.0000000000000000     9.2115995225426257
6      1         -1.5954958645974500     2.5909844487676166     7.3692798094936043
7      1         -6.3819834583897999     0.0000000000000000    11.9750794112153294
8      1         -3.1909917291948999     2.5909844487676166    10.1327596981663088
9      1         -7.9774793229872500     0.0000000000000000    14.7385592998880348
10     1         -4.7864875937923497     2.5909844487676166    12.8962395868390143
11     1         -9.5729751875846993     0.0000000000000000    17.5020395076599122
12     1         -6.3819834583897999     2.5909844487676166    15.6597194755117179
13     1        -11.1684710521821504     0.0000000000000000    20.2655193963326177
14     1         -7.9774793229872500     2.5909844487676166    18.4231993641844234
15     1        -12.7639669167795997     0.0000000000000000    23.0289992850053196
16     1         -9.5729751875846993     2.5909844487676166    21.1866792528571288
17     1        -14.3594627813770490     0.0000000000000000    25.7924791736780286
18     1        -11.1684710521821504     2.5909844487676166    23.9501591415298343
19     1          0.0000000000000000     0.0000000000000000     0.9211598565245107
20     1        -12.7639669167795997     2.5909844487676166    26.7136390302025326
ITEM: TIMESTEP energy, energy_weight, force_weight, nsims
13       -38476.1621966313832672    1    1   72
ITEM: NUMBER OF ATOMS
20        
ITEM: BOX BOUNDS xy xz yz pp pp pp
  -16.5549576298232921      3.1909917291949004      0.0000000000000003
    0.0000000000000000      5.1819695357335807    -16.5549576298232921
    0.0000000000000000     28.6740283091243171      0.0000000000000030
ITEM: ATOMS id type x y z
1      1         -1.5954958645974500     0.0000000000000000     3.6846397451972153
2      1          1.5954958645974500     2.5909844487676166     1.8423200321481941
3      1         -3.1909917291948999     0.0000000000000000     6.4481196338699203
4      1         -0.0000000000000000     2.5909844487676166     4.6057999208208988
5      1         -4.7864875937923497     0.0000000000000000     9.2115995225426257
6      1         -1.5954958645974500     2.5909844487676166     7.3692798094936043
7      1         -6.3819834583897999     0.0000000000000000    11.9750794112153294
8      1         -3.1909917291948999     2.5909844487676166    10.1327596981663088
9      1         -7.9774793229872500     0.0000000000000000    14.7385592998880348
10     1         -4.7864875937923497     2.5909844487676166    12.8962395868390143
11     1         -9.5729751875846993     0.0000000000000000    17.5020395076599122
12     1         -6.3819834583897999     2.5909844487676166    15.6597194755117179
13     1        -11.1684710521821504     0.0000000000000000    20.2655193963326177
14     1         -7.9774793229872500     2.5909844487676166    18.4231993641844234
15     1        -12.7639669167795997     0.0000000000000000    23.0289992850053196
16     1         -9.5729751875846993     2.5909844487676166    21.1866792528571288
17     1        -14.3594627813770490     0.0000000000000000    25.7924791736780286
18     1        -11.1684710521821504     2.5909844487676166    23.9501591415298343
19     1          0.0000000000000000     0.0000000000000000     0.9211598565245107
20     1        -12.7639669167795997     2.5909844487676166    26.7136390302025326
ITEM: TIMESTEP energy, energy_weight, force_weight, nsims
14       -38476.1071375006213202    1    1   72
ITEM: NUMBER OF ATOMS
20        
ITEM: BOX BOUNDS xy xz yz pp pp pp
  -16.6049572792280422      3.1909917291949004      0.0000000000000003
    0.0000000000000000      5.1819695357335807    -16.6049572792280422
    0.0000000000000000     28.7606318246546806      0.0000000000000031
ITEM: ATOMS id type x y z
1      1         -1.5954958645974500     0.0000000000000000     3.6846397451972153
2      1          1.5954958645974500     2.5909844487676166     1.8423200321481941
3      1         -3.1909917291948999     0.0000000000000000     6.4481196338699203
4      1         -0.0000000000000000     2.5909844487676166     4.6057999208208988
5      1         -4.7864875937923497     0.0000000000000000     9.2115995225426257
6      1         -1.5954958645974500     2.5909844487676166     7.3692798094936043
7      1         -6.3819834583897999     0.0000000000000000    11.9750794112153294
8      1         -3.1909917291948999     2.5909844487676166    10.1327596981663088
9      1         -7.9774793229872500     0.0000000000000000    14.7385592998880348
10     1         -4.7864875937923497     2.5909844487676166    12.8962395868390143
11     1         -9.5729751875846993     0.0000000000000000    17.5020395076599122
12     1         -6.3819834583897999     2.5909844487676166    15.6597194755117179
13     1        -11.1684710521821504     0.0000000000000000    20.2655193963326177
14     1         -7.9774793229872500     2.5909844487676166    18.4231993641844234
15     1        -12.7639669167795997     0.0000000000000000    23.0289992850053196
16     1         -9.5729751875846993     2.5909844487676166    21.1866792528571288
17     1        -14.3594627813770490     0.0000000000000000    25.7924791736780286
18     1        -11.1684710521821504     2.5909844487676166    23.9501591415298343
19     1          0.0000000000000000     0.0000000000000000     0.9211598565245107
20     1        -12.7639669167795997     2.5909844487676166    26.7136390302025326
ITEM: TIMESTEP energy, energy_weight, force_weight, nsims
15       -38476.0547573318035575    1    1   72
ITEM: NUMBER OF ATOMS
20        
ITEM: BOX BOUNDS xy xz yz pp pp pp
  -16.6549569286328030      3.1909917291949004      0.0000000000000003
    0.0000000000000000      5.1819695357335807    -16.6549569286328030
    0.0000000000000000     28.8472321491932924      0.0000000000000031
ITEM: ATOMS id type x y z
1      1         -1.5954958645974500     0.0000000000000000     3.6846397451972153
2      1          1.5954958645974500     2.5909844487676166     1.8423200321481941
3      1         -3.1909917291948999     0.0000000000000000     6.4481196338699203
4      1         -0.0000000000000000     2.5909844487676166     4.6057999208208988
5      1         -4.7864875937923497     0.0000000000000000     9.2115995225426257
6      1         -1.5954958645974500     2.5909844487676166     7.3692798094936043