ITEM: TIMESTEP energy, energy_weight, force_weight, nsims
1        -38476.7419350177951856    1    1   14
ITEM: NUMBER OF ATOMS
20        
ITEM: BOX BOUNDS xy xz yz pp pp pp
   -3.1908672805174536      3.1909917291948999     -1.5954958645974493
    0.0000000000000000      3.6845647568915867     -1.5953714159200041
    0.0000000000000000     51.9574791892106873      0.9210861446155729
ITEM: ATOMS id type x y z
1      1         -1.5953047241928711     2.7633694803588744     0.0084117732973307
2      1          0.0002996341233714     1.8421470803964717     2.6128133849886925
3      1         -1.5951949540773869     2.7633062987226364     5.2069329831302422
4      1          0.0001474238178888     1.8422348326690248     7.8035176223825955
5      1         -1.5953640766390340     2.7634039430695503    10.4003307366427613
6      1          0.0000296762230815     1.8423028007928568    12.9969252679694733
7      1         -1.5954189616967762     2.7634355338876690    15.5934061999906284
8      1          0.0000389300990962     1.8422973761069166    18.1895661182438246
9      1         -1.5953647148373797     2.7634042621687227    20.7856376460261210
10     1          0.0000603097436818     1.8422849312391729    23.3817621442711285
11     1         -1.5954144943083555     2.7634329810942857    25.9776747606653089
12     1          0.0000082965784959     1.8423152456606002    28.5738726517200838
13     1         -1.5954527862091057     2.7634549989372172    31.1700335272707996
14     1          0.0000210605454127     1.8423079063796231    33.7662531170693399
15     1         -1.5954451278289556     2.7634505315487963    36.3627659590077883
16     1         -0.0000325481156378     1.8423385399002234    38.9593789980865211
17     1         -1.5955226689279751     2.7634952054330046    41.5561863685615691
18     1         -0.0001780573384891     1.8424227820818744    44.1527234620371658
19     1         -1.5956458412087222     2.7635666836477388    46.7467664763772035
20     1         -0.0000344627106753     1.8423398162969153    49.3511087356224110
ITEM: TIMESTEP energy, energy_weight, force_weight, nsims
2        -38476.7606414920664974    1    1   14
ITEM: NUMBER OF ATOMS
20        
ITEM: BOX BOUNDS xy xz yz pp pp pp
   -1.5954958645974493      3.1909917291949030     -1.5954958645974493
    0.0000000000000000      2.7634786122760189      0.0000000000000032
    0.0000000000000000     51.9221868206857877      0.0000000000000055
ITEM: ATOMS id type x y z
1      1          0.0000000000000000     0.0000000000000000    51.9221861824874438
2      1          0.0000000000000000     1.8423200321481941     2.5961082241871845
3      1          0.0000000000000000     0.0000000000000000     5.1922170865727146
4      1          0.0000000000000000     1.8423200321481941     7.7883269062557634
5      1          0.0000000000000000     0.0000000000000000    10.3844370450379841
6      1          0.0000000000000000     1.8423200321481941    12.9805471838202049
7      1          0.0000000000000000     0.0000000000000000    15.5766570035032554
8      1          0.0000000000000000     1.8423200321481941    18.1727652276904408
9      1          0.0000000000000000     0.0000000000000000    20.7688737709767963
10     1          0.0000000000000000     1.8423200321481941    23.3649823142631554
11     1          0.0000000000000000     0.0000000000000000    25.9610918148470340
12     1          0.0000000000000000     1.8423200321481941    28.5572019536292494
13     1          0.0000000000000000     0.0000000000000000    31.1533114542131280
14     1          0.0000000000000000     1.8423200321481941    33.7494215929953540
15     1          0.0000000000000000     0.0000000000000000    36.3455310935792255
16     1          0.0000000000000000     1.8423200321481941    38.9416412323614480
17     1          0.0000000000000000     0.0000000000000000    41.5377510520444986
18     1          0.0000000000000000     1.8423200321481941    44.1338605526283700
19     1          0.0000000000000000     0.0000000000000000    46.7299694150138976
20     1          0.0000000000000000     1.8423200321481941    49.3260776392010882
ITEM: TIMESTEP energy, energy_weight, force_weight, nsims
3        -38476.7551099594566040    1    1   14
ITEM: NUMBER OF ATOMS
20        
ITEM: BOX BOUNDS xy xz yz pp pp pp
   -1.7550454510571964      3.1909917291948999     -1.5954958645974493
    0.0000000000000000      2.8555961615144199     -0.1595495864597472
    0.0000000000000000     51.9312013723207642      0.0921175492384065
ITEM: ATOMS id type x y z
1      1         -1.5954958645974500     2.7634798886727046     0.0041176557273531
2      1         -0.0000000000000000     1.8423200321481941     2.5997204268246330
3      1         -1.5954958645974500     2.7634798886727046     5.1952076840213151
4      1          0.0000000000000000     1.8423200321481941     7.7906087844413108
5      1         -1.5954958645974500     2.7634798886727046    10.3864543900091828
6      1          0.0000000000000000     1.8423200321481941    12.9828147025429743
7      1         -1.5954958645974500     2.7634798886727046    15.5793597734978846
8      1          0.0000000000000000     1.8423200321481941    18.1759239904031737
9      1         -1.5954958645974500     2.7634798886727046    20.7724783152340962
10     1         -0.0000000000000000     1.8423200321481941    23.3690422130402098
11     1         -1.5954958645974500     2.7634798886727046    25.9655965378711322
12     1          0.0000000000000000     1.8423200321481941    28.5621543727929605
13     1         -1.5954958645974500     2.7634798886727046    31.1587150796073438
14     1         -0.0000000000000000     1.8423200321481941    33.7552777010167659
15     1         -1.5954958645974500     2.7634798886727046    36.3518227719716833
16     1          0.0000000000000000     1.8423200321481941    38.9481821272079500
17     1         -1.5954958645974500     2.7634798886727046    41.5440347529576286
18     1         -0.0000000000000000     1.8423200321481941    44.1394380870718308
19     1         -1.5954958645974500     2.7634798886727046    46.7349349172436987
20     1         -0.0000000000000000     1.8423200321481941    49.3305351355475992
ITEM: TIMESTEP energy, energy_weight, force_weight, nsims
4        -38476.7424218296728213    1    1   14
ITEM: NUMBER OF ATOMS
20        
ITEM: BOX BOUNDS xy xz yz pp pp pp
   -1.9145950375169312      3.1909917291948999     -1.5954958645974493
    0.0000000000000000      2.9477105197610864     -0.3190991729194820
    0.0000000000000000     51.9560751528498415      0.1842319074850731
ITEM: ATOMS id type x y z
1      1         -1.5954958645974500     2.7634798886727046     0.0147921612598559
2      1          0.0000000000000000     1.8423200321481941     2.6119607519986516
3      1         -1.5954958645974500     2.7634798886727046     5.2080830165494447
4      1         -0.0000000000000000     1.8423200321481941     7.8040377540344545
5      1         -1.5954958645974500     2.7634798886727046    10.3999197369080392
6      1         -0.0000000000000000     1.8423200321481941    12.9959800962192862
7      1         -1.5954958645974500     2.7634798886727046    15.5922169173731540
8      1          0.0000000000000000     1.8423200321481941    18.1883343954363568
9      1         -1.5954958645974500     2.7634798886727046    20.7846101466893209
10     1          0.0000000000000000     1.8423200321481941    23.3810017309420566
11     1         -1.5954958645974500     2.7634798886727046    25.9773850186162996
12     1         -0.0000000000000000     1.8423200321481941    28.5737497985385147
13     1         -1.5954958645974500     2.7634798886727046    31.1699961926675719
14     1          0.0000000000000000     1.8423200321481941    33.7660670822515172
15     1         -1.5954958645974500     2.7634798886727046    36.3622710361905845
16     1         -0.0000000000000000     1.8423200321481941    38.9583033147746107
17     1         -1.5954958645974500     2.7634798886727046    41.5541671089953368
18     1          0.0000000000000000     1.8423200321481941    44.1501304621580246
19     1         -1.5954958645974500     2.7634798886727046    46.7462597468906154
20     1          0.0000000000000000     1.8423200321481941    49.3434340814145216
ITEM: TIMESTEP energy, energy_weight, force_weight, nsims
5        -38476.7282778901862912    1    1   14
ITEM: NUMBER OF ATOMS
20        
ITEM: BOX BOUNDS xy xz yz pp pp pp
   -2.0741446239766779      3.1909917291948999     -1.5954958645974493
    0.0000000000000000      3.0398280689994932     -0.4786487593792284
    0.0000000000000000     51.9792864266880272      0.2763494567234798
ITEM: ATOMS id type x y z
1      1         -1.5954958645974500     2.7634798886727046     0.0261396469480459
2      1         -0.0000000000000000     1.8423200321481941     2.6243890265855199
3      1         -1.5954958645974500     2.7634798886727046     5.2207952894002112
4      1          0.0000000000000000     1.8423200321481941     7.8170557238928779
5      1         -1.5954958645974500     2.7634798886727046    10.4129731267746557
6      1          0.0000000000000000     1.8423200321481941    13.0088480894664382
7      1         -1.5954958645974500     2.7634798886727046    15.6047913393812188
8      1          0.0000000000000000     1.8423200321481941    18.2004703751808314
9      1         -1.5954958645974500     2.7634798886727046    20.7963306593106587
10     1         -0.0000000000000000     1.8423200321481941    23.3923013517543126
11     1         -1.5954958645974500     2.7634798886727046    25.9881849301237580
12     1         -0.0000000000000000     1.8423200321481941    28.5840506389395266
13     1         -1.5954958645974500     2.7634798886727046    31.1798314673752941
14     1         -0.0000000000000000     1.8423200321481941    33.7754942291170792
15     1         -1.5954958645974500     2.7634798886727046    36.3714853439077999
16     1         -0.0000000000000000     1.8423200321481941    38.9673944502110885
17     1         -1.5954958645974500     2.7634798886727046    41.5632856869606897
18     1          0.0000000000000000     1.8423200321481941    44.1594854926105000
19     1         -1.5954958645974500     2.7634798886727046    46.7558563354169934
20     1          0.0000000000000000     1.8423200321481941    49.3540690186495823
ITEM: TIMESTEP energy, energy_weight, force_weight, nsims
6        -38476.7170614887654665    1    1   14
ITEM: NUMBER OF ATOMS
20        
ITEM: BOX BOUNDS xy xz yz pp pp pp
   -2.2336942104364228      3.1909917291948999     -1.5954958645974493
    0.0000000000000000      3.1319424272461509     -0.6381983458389734
    0.0000000000000000     51.9978165156594443      0.3684638149701374
ITEM: ATOMS id type x y z
1      1         -1.5954958645974500     2.7634798886727046     0.0343219879400474
2      1          0.0000000000000000     1.8423200321481941     2.6332590262951632
3      1         -1.5954958645974500     2.7634798886727046     5.2294878699697112
4      1          0.0000000000000000     1.8423200321481941     7.8259187034207169
5      1         -1.5954958645974500     2.7634798886727046    10.4220227793186542
6      1         -0.0000000000000000     1.8423200321481941    13.0177011769199158
7      1         -1.5954958645974500     2.7634798886727046    15.6137203724378537
8      1          0.0000000000000000     1.8423200321481941    18.2094597179811437
9      1         -1.5954958645974500     2.7634798886727046    20.8051811939707498
10     1         -0.0000000000000000     1.8423200321481941    23.4010523274724562
11     1         -1.5954958645974500     2.7634798886727046    25.9967648686852151
12     1          0.0000000000000000     1.8423200321481941    28.5926634447158001
13     1         -1.5954958645974500     2.7634798886727046    31.1883900262921685
14     1          0.0000000000000000     1.8423200321481941    33.7841606435544008
15     1         -1.5954958645974500     2.7634798886727046    36.3802197264689582
16     1         -0.0000000000000000     1.8423200321481941    38.9759239711032279
17     1         -1.5954958645974500     2.7634798886727046    41.5720628288110134
18     1          0.0000000000000000     1.8423200321481941    44.1685006824438204
19     1         -1.5954958645974500     2.7634798886727046    46.7647442046803263
20     1          0.0000000000000000     1.8423200321481941    49.3637042181758829
ITEM: TIMESTEP energy, energy_weight, force_weight, nsims
7        -38476.7112903598172124    1    1   14
ITEM: NUMBER OF ATOMS
20        
ITEM: BOX BOUNDS xy xz yz pp pp pp
   -2.3932437968961660      3.1909917291948999     -1.5954958645974493
    0.0000000000000000      3.2240599764845546     -0.7977479322987168
    0.0000000000000000     52.0077692188627907      0.4605813642085410
ITEM: ATOMS id type x y z
1      1         -1.5954958645974500     2.7634798886727046     0.0376725292557021
2      1         -0.0000000000000000     1.8423200321481941     2.6371245936759098
3      1         -1.5954958645974500     2.7634798886727046     5.2325065481455297
4      1          0.0000000000000000     1.8423200321481941     7.8290315158525461
5      1         -1.5954958645974500     2.7634798886727046    10.4253927856838562
6      1         -0.0000000000000000     1.8423200321481941    13.0215820610609629
7      1         -1.5954958645974500     2.7634798886727046    15.6176344428928857
8      1         -0.0000000000000000     1.8423200321481941    18.2137094807660880
9      1         -1.5954958645974500     2.7634798886727046    20.8095611492182435
10     1         -0.0000000000000000     1.8423200321481941    23.4057389370251236
11     1         -1.5954958645974500     2.7634798886727046    26.0016933554109606
12     1         -0.0000000000000000     1.8423200321481941    28.5978567837550592
13     1         -1.5954958645974500     2.7634798886727046    31.1938057774549584
14     1          0.0000000000000000     1.8423200321481941    33.7899073005595056
15     1         -1.5954958645974500     2.7634798886727046    36.3859220286890306
16     1          0.0000000000000000     1.8423200321481941    38.9820765222562855
17     1         -1.5954958645974500     2.7634798886727046    41.5783548263026432
18     1          0.0000000000000000     1.8423200321481941    44.1747460914562069
19     1         -1.5954958645974500     2.7634798886727046    46.7700642260912360
20     1         -0.0000000000000000     1.8423200321481941    49.3694349202223464
ITEM: TIMESTEP energy, energy_weight, force_weight, nsims
8        -38476.7118179887838778    1    1   14
ITEM: NUMBER OF ATOMS
20        
ITEM: BOX BOUNDS xy xz yz pp pp pp
   -2.5527933833559180      3.1909917291948999     -1.5954958645974493
    0.0000000000000000      3.3161743347312158     -0.9572975187584687
    0.0000000000000000     52.0065119681214796      0.5526957224552022
ITEM: ATOMS id type x y z
1      1         -1.5954958645974500     2.7634798886727046     0.0363227397542526
2      1         -0.0000000000000000     1.8423200321481941     2.6366172259909679
3      1         -1.5954958645974500     2.7634798886727046     5.2319149382789369
4      1         -0.0000000000000000     1.8423200321481941     7.8280844295073218
5      1         -1.5954958645974500     2.7634798886727046    10.4240886273641333
6      1          0.0000000000000000     1.8423200321481941    13.0201875976753030
7      1         -1.5954958645974500     2.7634798886727046    15.6163484732260187
8      1          0.0000000000000000     1.8423200321481941    18.2125935909583845
9      1         -1.5954958645974500     2.7634798886727046    20.8086405481043712
10     1         -0.0000000000000000     1.8423200321481941    23.4050311750595874
11     1         -1.5954958645974500     2.7634798886727046    26.0011052556352702
12     1          0.0000000000000000     1.8423200321481941    28.5975887404498081
13     1         -1.5954958645974500     2.7634798886727046    31.1936969646369917
14     1         -0.0000000000000000     1.8423200321481941    33.7898801771298096
15     1         -1.5954958645974500     2.7634798886727046    36.3860183966392512
16     1         -0.0000000000000000     1.8423200321481941    38.9820289764795191
17     1         -1.5954958645974500     2.7634798886727046    41.5780721044354351
18     1         -0.0000000000000000     1.8423200321481941    44.1743070109942693
19     1         -1.5954958645974500     2.7634798886727046    46.7695153755138122
20     1          0.0000000000000000     1.8423200321481941    49.3698172010315020
ITEM: TIMESTEP energy, energy_weight, force_weight, nsims
9        -38476.7180544326038216    1    1   14
ITEM: NUMBER OF ATOMS
20        
ITEM: BOX BOUNDS xy xz yz pp pp pp
   -2.7123429698156576      3.1909917291948999     -1.5954958645974493
    0.0000000000000000      3.4082918839696252     -1.1168471052182081
    0.0000000000000000     51.9951935204580238      0.6448132716936116
ITEM: ATOMS id type x y z
1      1         -1.5954958645974500     2.7634798886727046     0.0300224456841302
2      1          0.0000000000000000     1.8423200321481941     2.6311520144563754
3      1         -1.5954958645974500     2.7634798886727046     5.2254669012917523
4      1          0.0000000000000000     1.8423200321481941     7.8212349657606053
5      1         -1.5954958645974500     2.7634798886727046    10.4172710735347085
6      1         -0.0000000000000000     1.8423200321481941    13.0135299125315118
7      1         -1.5954958645974500     2.7634798886727046    15.6096942981731299
8      1         -0.0000000000000000     1.8423200321481941    18.2062569195825503
9      1         -1.5954958645974500     2.7634798886727046    20.8026714789757357
10     1         -0.0000000000000000     1.8423200321481941    23.3995525613597337
11     1         -1.5954958645974500     2.7634798886727046    25.9959929677859272
12     1          0.0000000000000000     1.8423200321481941    28.5928616053021791
13     1         -1.5954958645974500     2.7634798886727046    31.1891871360261241
14     1          0.0000000000000000     1.8423200321481941    33.7856479647993808
15     1         -1.5954958645974500     2.7634798886727046    36.3818168178294243
16     1         -0.0000000000000000     1.8423200321481941    38.9779901382478755
17     1         -1.5954958645974500     2.7634798886727046    41.5741640968646848
18     1          0.0000000000000000     1.8423200321481941    44.1699327995318853
19     1         -1.5954958645974500     2.7634798886727046    46.7643810698215390
20     1         -0.0000000000000000     1.8423200321481941    49.3655077667012350
ITEM: TIMESTEP energy, energy_weight, force_weight, nsims
10       -38476.7278901277968544    1    1   14
ITEM: NUMBER OF ATOMS
20        
ITEM: BOX BOUNDS xy xz yz pp pp pp
   -2.8718925562754065      3.1909917291948999     -1.5954958645974493
    0.0000000000000000      3.5004062422162825     -1.2763966916779572
    0.0000000000000000     51.9795417060263460      0.7369276299402692
ITEM: ATOMS id type x y z
1      1         -1.5954958645974500     2.7634798886727046     0.0208320704048760
2      1         -0.0000000000000000     1.8423200321481941     2.6236034044217922
3      1         -1.5954958645974500     2.7634798886727046     5.2175028241340273
4      1          0.0000000000000000     1.8423200321481941     7.8134068248505439
5      1         -1.5954958645974500     2.7634798886727046    10.4093363535008923
6      1         -0.0000000000000000     1.8423200321481941    13.0055766847456642
7      1         -1.5954958645974500     2.7634798886727046    15.6021961058078666
8      1          0.0000000000000000     1.8423200321481941    18.1987670237957815
9      1         -1.5954958645974500     2.7634798886727046    20.7952779511391945
10     1         -0.0000000000000000     1.8423200321481941    23.3920364994407919
11     1         -1.5954958645974500     2.7634798886727046    25.9884478678422433
12     1         -0.0000000000000000     1.8423200321481941    28.5852252429950369
13     1         -1.5954958645974500     2.7634798886727046    31.1818153069333341
14     1          0.0000000000000000     1.8423200321481941    33.7783434656320836
15     1         -1.5954958645974500     2.7634798886727046    36.3748977904630024
16     1         -0.0000000000000000     1.8423200321481941    38.9712044943357512
17     1         -1.5954958645974500     2.7634798886727046    41.5671869934488001
18     1          0.0000000000000000     1.8423200321481941    44.1631417309338090
19     1         -1.5954958645974500     2.7634798886727046    46.7570762515550697
20     1          0.0000000000000000     1.8423200321481941    49.3597725972663497
ITEM: TIMESTEP energy, energy_weight, force_weight, nsims
11       -38476.7375586089547141    1    1   14
ITEM: NUMBER OF ATOMS
20        
ITEM: BOX BOUNDS xy xz yz pp pp pp
   -3.0314421427351501      3.1909917291948999     -1.5954958645974493
    0.0000000000000000      3.5925237914546875     -1.4359462781377010
    0.0000000000000000     51.9636888591156918      0.8290451791786742
ITEM: ATOMS id type x y z
1      1         -1.5954958645974500     2.7634798886727046     0.0129627657015084
2      1          0.0000000000000000     1.8423200321481941     2.6175887041114327
3      1         -1.5954958645974500     2.7634798886727046     5.2114980158980293
4      1         -0.0000000000000000     1.8423200321481941     7.8074189288707094
5      1         -1.5954958645974500     2.7634798886727046    10.4035268339587219
6      1         -0.0000000000000000     1.8423200321481941    12.9997186621292098
7      1         -1.5954958645974500     2.7634798886727046    15.5961360934149535
8      1         -0.0000000000000000     1.8423200321481941    18.1924775790975417
9      1         -1.5954958645974500     2.7634798886727046    20.7886502613176560
10     1          0.0000000000000000     1.8423200321481941    23.3848022020915316
11     1         -1.5954958645974500     2.7634798886727046    25.9806484458577494
12     1         -0.0000000000000000     1.8423200321481941    28.5768654828628961
13     1         -1.5954958645974500     2.7634798886727046    31.1729791317360245
14     1         -0.0000000000000000     1.8423200321481941    33.7692797727244738
15     1         -1.5954958645974500     2.7634798886727046    36.3657696395224761
16     1         -0.0000000000000000     1.8423200321481941    38.9620026314862713
17     1         -1.5954958645974500     2.7634798886727046    41.5580164023182661
18     1          0.0000000000000000     1.8423200321481941    44.1540480427039483
19     1         -1.5954958645974500     2.7634798886727046    46.7480741447878358
20     1         -0.0000000000000000     1.8423200321481941    49.3525845692971643
ITEM: TIMESTEP energy, energy_weight, force_weight, nsims
12       -38476.7419845425392850    1    1   14
ITEM: NUMBER OF ATOMS
20        
ITEM: BOX BOUNDS xy xz yz pp pp pp
   -3.1909917291948999      3.1909917291948999     -1.5954958645974493
    0.0000000000000000      3.6846381497013492     -1.5954958645974506
    0.0000000000000000     51.9560400519408248      0.9211595374253355
ITEM: ATOMS id type x y z
1      1         -1.5954958645974500     2.7634798886727046     0.0086364191150660
2      1          0.0000000000000000     1.8423200321481941     2.6125865054767470
3      1         -1.5954958645974500     2.7634798886727046     5.2061913966523772
4      1          0.0000000000000000     1.8423200321481941     7.8027881616733019
5      1         -1.5954958645974500     2.7634798886727046    10.4000623742383347
6      1         -0.0000000000000000     1.8423200321481941    12.9970647143080384
7      1         -1.5954958645974500     2.7634798886727046    15.5938069885518136
8      1          0.0000000000000000     1.8423200321481941    18.1896462121362283
9      1         -1.5954958645974500     2.7634798886727046    20.7853523713655299
10     1         -0.0000000000000000     1.8423200321481941    23.3812956212803158
11     1         -1.5954958645974500     2.7634798886727046    25.9770573037657115
12     1          0.0000000000000000     1.8423200321481941    28.5727797370528371
13     1         -1.5954958645974500     2.7634798886727046    31.1685854552240897
14     1          0.0000000000000000     1.8423200321481941    33.7644869031472226
15     1         -1.5954958645974500     2.7634798886727046    36.3610281449120620
16     1          0.0000000000000000     1.8423200321481941    38.9580671813866459
17     1         -1.5954958645974500     2.7634798886727046    41.5555363635463308
18     1          0.0000000000000000     1.8423200321481941    44.1520533537740363
19     1         -1.5954958645974500     2.7634798886727046    46.7456065508836502
20     1          0.0000000000000000     1.8423200321481941    49.3497458630548707
ITEM: TIMESTEP energy, energy_weight, force_weight, nsims
13       -38476.7361826647102134    1    1   14
ITEM: NUMBER OF ATOMS
20        
ITEM: BOX BOUNDS xy xz yz pp pp pp
   -3.3505413156546369      3.1909917291948999     -1.5954958645974493
    0.0000000000000000      3.7767556989397577     -1.7550454510571876
    0.0000000000000000     51.9653673207652531      1.0132770866637442
ITEM: ATOMS id type x y z
1      1         -1.5954958645974500     2.7634798886727046     0.0135052342954716
2      1          0.0000000000000000     1.8423200321481941     2.6172255692526503
3      1         -1.5954958645974500     2.7634798886727046     5.2109060869322628
4      1          0.0000000000000000     1.8423200321481941     7.8070577086069646
5      1         -1.5954958645974500     2.7634798886727046    10.4039129439579536
6      1          0.0000000000000000     1.8423200321481941    13.0006510699124789
7      1         -1.5954958645974500     2.7634798886727046    15.5970630765122831
8      1         -0.0000000000000000     1.8423200321481941    18.1932309722448018
9      1         -1.5954958645974500     2.7634798886727046    20.7894004634731893
10     1          0.0000000000000000     1.8423200321481941    23.3856896168914190
11     1         -1.5954958645974500     2.7634798886727046    25.9815830873352311
12     1         -0.0000000000000000     1.8423200321481941    28.5778192702907567
13     1         -1.5954958645974500     2.7634798886727046    31.1740755564941701
14     1          0.0000000000000000     1.8423200321481941    33.7700730532683551
15     1         -1.5954958645974500     2.7634798886727046    36.3665386685292091
16     1          0.0000000000000000     1.8423200321481941    38.9632037207731372
17     1         -1.5954958645974500     2.7634798886727046    41.5599287636615813
18     1          0.0000000000000000     1.8423200321481941    44.1560931493031958
19     1         -1.5954958645974500     2.7634798886727046    46.7496546429913096
20     1         -0.0000000000000000     1.8423200321481941    49.3533737015517957
ITEM: TIMESTEP energy, energy_weight, force_weight, nsims
14       -38476.7176251728305942    1    1   14
ITEM: NUMBER OF ATOMS
20        
ITEM: BOX BOUNDS xy xz yz pp pp pp
   -3.5100909021143893      3.1909917291948999     -1.5954958645974493
    0.0000000000000000      3.8688700571864203     -1.9145950375169398
    0.0000000000000000     51.9972198002060892      1.1053914449104065
ITEM: ATOMS id type x y z
1      1         -1.5954958645974500     2.7634798886727046     0.0298625769984976
2      1         -0.0000000000000000     1.8423200321481941     2.6322841783218940
3      1         -1.5954958645974500     2.7634798886727046     5.2261826407366101
4      1         -0.0000000000000000     1.8423200321481941     7.8221536522794404
5      1         -1.5954958645974500     2.7634798886727046    10.4184054710944380
6      1         -0.0000000000000000     1.8423200321481941    13.0147517432646200
7      1         -1.5954958645974500     2.7634798886727046    15.6110702538067585
8      1         -0.0000000000000000     1.8423200321481941    18.2074280135471618
9      1         -1.5954958645974500     2.7634798886727046    20.8038837367336562
10     1         -0.0000000000000000     1.8423200321481941    23.4005762315064594
11     1         -1.5954958645974500     2.7634798886727046    25.9969844089161874
12     1          0.0000000000000000     1.8423200321481941    28.5936628633253811
13     1         -1.5954958645974500     2.7634798886727046    31.1900566812723277
14     1          0.0000000000000000     1.8423200321481941    33.7863751918144644
15     1         -1.5954958645974500     2.7634798886727046    36.3826008444972828
16     1         -0.0000000000000000     1.8423200321481941    38.9789174404443841
17     1         -1.5954958645974500     2.7634798886727046    41.5750840597802096
18     1         -0.0000000000000000     1.8423200321481941    44.1710435837528195
19     1         -1.5954958645974500     2.7634798886727046    46.7649139654403214
20     1         -0.0000000000000000     1.8423200321481941    49.3673499262264954
