ITEM: TIMESTEP energy, energy_weight, force_weight, nsims
1        -38476.7602114159526536    1    1   22
ITEM: NUMBER OF ATOMS
20        
ITEM: BOX BOUNDS xy xz yz pp pp pp
   -1.5954958645974502     19.1459503751693987     -1.5954958645974502
  -12.9832646323767911      5.8820507841768341     15.9549586459745001
    0.0000000000000000     24.4026082633165089    -12.9832646323767911
ITEM: ATOMS id type x y z
1      1         14.3594627813770490    -7.1012151245966466    24.4025942229529029
2      1          1.5954958645974500     2.7246372227499069     0.4067238058031819
3      1          0.0000000000000000     4.5837233636416377     2.4402467859680428
4      1          3.1909917291948999     1.4263107595122280     2.8469846321348333
5      1          1.5954958645974500     3.2853969004039576     4.8805079313988671
6      1          4.7864875937923497     0.1279842962745490     5.2872454584664847
7      1          3.1909917291948999     1.9870704371662791     7.3207687577305185
8      1          6.3819834583897999    -1.1703421669631300     7.7275062847981353
9      1          4.7864875937923497     0.6887439739286001     9.7610295840621699
10     1          7.9774793229872500    -2.4686686302008090    10.1677671111297876
11     1          6.3819834583897999    -0.6095824893090788    12.2012904103938205
12     1          9.5729751875846993    -3.7669950934384877    12.6080279374614381
13     1          7.9774793229872500    -1.9079089525467576    14.6415509176263008
14     1         11.1684710521821504    -5.0653218757753393    15.0482887637930904
15     1          9.5729751875846993    -3.2062354157844370    17.0818117439579495
16     1         12.7639669167795997    -6.3636483390130181    17.4885495901247410
17     1         11.1684710521821504    -4.5045618790221154    19.5220725702896019
18     1         14.3594627813770490    -7.6619748022506986    19.9288104164563933
19     1         12.7639669167795997    -5.8028883422597950    21.9623333966212506
20     1         15.9549586459745001    -8.9603012654883756    22.3690712427880420
ITEM: TIMESTEP energy, energy_weight, force_weight, nsims
2        -38476.7204573349445127    1    1   22
ITEM: NUMBER OF ATOMS
20        
ITEM: BOX BOUNDS xy xz yz pp pp pp
   -1.5954958645974502     19.1459503751693987     -1.5954958645974502
  -12.6891636886638164      5.8820507841768341     15.9549586459745001
    0.0000000000000000     24.4508018114025383    -12.6891636886638164
ITEM: ATOMS id type x y z
1      1          3.1909917291948999    -0.0000000000000000     0.0026306535815483
2      1          1.5954958645974500     2.7246372227499069     0.4401816731829634
3      1          3.1909917291948999     4.5837233636416377     2.4570811819345835
4      1          3.1909917291948999     1.4263107595122280     2.8665718966661506
5      1          4.7864875937923497     3.2853969004039576     4.9000620096161995
6      1          4.7864875937923497     0.1279842962745490     5.3064290625440584
7      1          6.3819834583897999     1.9870704371662791     7.3415252016314119
8      1          6.3819834583897999    -1.1703421669631300     7.7478960837493442
9      1          7.9774793229872500     0.6887439739286001     9.7827225840355823
10     1          7.9774793229872500    -2.4686686302008090    10.1891987688805798
11     1          9.5729751875846993    -0.6095824893090788    12.2240610082741821
12     1          9.5729751875846993    -3.7669950934384877    12.6305407032100803
13     1         11.1684710521821504    -1.9079089525467576    14.6653506103393276
14     1         11.1684710521821504    -5.0653218757753393    15.0717246834489877
15     1         12.7639669167795997    -3.2062354157844370    17.1068010383876228
16     1         12.7639669167795997    -6.3636483390130181    17.5131639430262318
17     1         14.3594627813770490    -4.5045618790221154    19.5466432066044007
18     1         14.3594627813770490    -7.6619748022506986    19.9561355168318322
19     1         15.9549586459745001    -5.8028883422597950    21.9730356637818005
20     1         15.9549586459745001    -8.9603012654883756    22.4105825350939654
ITEM: TIMESTEP energy, energy_weight, force_weight, nsims
3        -38476.6388713107153308    1    1   22
ITEM: NUMBER OF ATOMS
20        
ITEM: BOX BOUNDS xy xz yz pp pp pp
   -1.5954958645974502     19.1459503751693987     -1.5954958645974502
  -12.3950595539590989      5.8820507841768341     15.9549586459744983
    0.0000000000000000     24.5266899767062654    -12.3950595539590989
ITEM: ATOMS id type x y z
1      1          3.1909917291948999    -0.0000000000000000     0.0230029020782473
2      1          1.5954958645974500     2.7246372227499069     0.4879412463938235
3      1          3.1909917291948999     4.5837233636416377     2.4881907985008502
4      1          3.1909917291948999     1.4263107595122280     2.9014060387787333
5      1          4.7864875937923497     3.2853969004039576     4.9331886520544916
6      1          4.7864875937923497     0.1279842962745490     5.3398815052378996
7      1          6.3819834583897999     1.9870704371662791     7.3756094606876346
8      1          6.3819834583897999    -1.1703421669631300     7.7821481889705240
9      1          7.9774793229872500     0.6887439739286001     9.8174571672062161
10     1          7.9774793229872500    -2.4686686302008090    10.2239777068362461
11     1          9.5729751875846993    -0.6095824893090788    12.2592273326257750
12     1          9.5729751875846993    -3.7669950934384877    12.6657354273880642
13     1         11.1684710521821504    -1.9079089525467576    14.7009065547810529
14     1         11.1684710521821504    -5.0653218757753393    15.1074296472044693
15     1         12.7639669167795997    -3.2062354157844370    17.1429154063819595
16     1         12.7639669167795997    -6.3636483390130181    17.5496130460529614
17     1         14.3594627813770490    -4.5045618790221154    19.5811435709821104
18     1         14.3594627813770490    -7.6619748022506986    19.9943642359459339
19     1         15.9549586459745001    -5.8028883422597950    21.9944539193673272
20     1         15.9549586459745001    -8.9603012654883756    22.4593865198977909
ITEM: TIMESTEP energy, energy_weight, force_weight, nsims
4        -38476.5641139863510034    1    1   22
ITEM: NUMBER OF ATOMS
20        
ITEM: BOX BOUNDS xy xz yz pp pp pp
   -1.5954958645974502     19.1459503751693987     -1.5954958645974502
  -12.1009586102461260      5.8820507841768341     15.9549586459745001
    0.0000000000000000     24.5916394223622845    -12.1009586102461260
ITEM: ATOMS id type x y z
1      1          3.1909917291948999     0.0000000000000000     0.0453944101411808
2      1          1.5954958645974500     2.7246372227499069     0.5277648231741757
3      1          3.1909917291948999     4.5837233636416377     2.5151885031248762
4      1          3.1909917291948999     1.4263107595122280     2.9322147448249374
5      1          4.7864875937923497     3.2853969004039576     4.9617256910886818
6      1          4.7864875937923497     0.1279842962745490     5.3685713927759187
7      1          6.3819834583897999     1.9870704371662791     7.4049997709102113
8      1          6.3819834583897999    -1.1703421669631300     7.8110636796237953
9      1          7.9774793229872500     0.6887439739286001     9.8471400913703597
10     1          7.9774793229872500    -2.4686686302008090    10.2530052012992154
11     1          9.5729751875846993    -0.6095824893090788    12.2891741518059234
12     1          9.5729751875846993    -3.7669950934384877    12.6950434100240273
13     1         11.1684710521821504    -1.9079089525467576    14.7311842798035180
14     1         11.1684710521821504    -5.0653218757753393    15.1372331908559765
15     1         12.7639669167795997    -3.2062354157844370    17.1737649571222946
16     1         12.7639669167795997    -6.3636483390130181    17.5806049150244199
17     1         14.3594627813770490    -4.5045618790221154    19.6102237168086120
18     1         14.3594627813770490    -7.6619748022506986    20.0272416619301765
19     1         15.9549586459745001    -5.8028883422597950    22.0147230988311726
20     1         15.9549586459745001    -8.9603012654883756    22.4970912781699610
ITEM: TIMESTEP energy, energy_weight, force_weight, nsims
5        -38476.5185895927425008    1    1   22
ITEM: NUMBER OF ATOMS
20        
ITEM: BOX BOUNDS xy xz yz pp pp pp
   -1.5954958645974502     19.1459503751693987     -1.5954958645974502
  -11.8068544755414138      5.8820507841768341     15.9549586459745001
    0.0000000000000000     24.6269190269202731    -11.8068544755414138
ITEM: ATOMS id type x y z
1      1          3.1909917291948999    -0.0000000000000000     0.0660541669926803
2      1          1.5954958645974500     2.7246372227499069     0.5456742642542822
3      1          3.1909917291948999     4.5837233636416377     2.5314290555306140
4      1          3.1909917291948999     1.4263107595122280     2.9513648434893547
5      1          4.7864875937923497     3.2853969004039576     4.9785661499395077
6      1          4.7864875937923497     0.1279842962745490     5.3861295056666396
7      1          6.3819834583897999     1.9870704371662791     7.4221692210083177
8      1          6.3819834583897999    -1.1703421669631300     7.8283020551432516
9      1          7.9774793229872500     0.6887439739286001     9.8638034501802139
10     1          7.9774793229872500    -2.4686686302008090    10.2697738628361339
11     1          9.5729751875846993    -0.6095824893090788    12.3052277120963307
12     1          9.5729751875846993    -3.7669950934384877    12.7112032303390148
13     1         11.1684710521821504    -1.9079089525467576    14.7465747520125987
14     1         11.1684710521821504    -5.0653218757753393    15.1527139681309908
15     1         12.7639669167795997    -3.2062354157844370    17.1885478645061376
16     1         12.7639669167795997    -6.3636483390130181    17.5961185595142453
17     1         14.3594627813770490    -4.5045618790221154    19.6230945819483189
18     1         14.3594627813770490    -7.6619748022506986    20.0430491967582611
19     1         15.9549586459745001    -5.8028883422597950    22.0286878359356493
20     1         15.9549586459745001    -8.9603012654883756    22.5082795333708638
ITEM: TIMESTEP energy, energy_weight, force_weight, nsims
6        -38476.5047422574716620    1    1   22
ITEM: NUMBER OF ATOMS
20        
ITEM: BOX BOUNDS xy xz yz pp pp pp
   -1.5954958645974502     19.1459503751693987     -1.5954958645974502
  -11.5127535318284533      5.8820507841768341     15.9549586459745001
    0.0000000000000000     24.6322958479839613    -11.5127535318284533
ITEM: ATOMS id type x y z
1      1          3.1909917291948999     0.0000000000000000     0.0881154074116421
2      1          1.5954958645974500     2.7246372227499069     0.5347176750529186
3      1          3.1909917291948999     4.5837233636416377     2.5349445711186682
4      1          3.1909917291948999     1.4263107595122280     2.9550740522753705
5      1          4.7864875937923497     3.2853969004039576     4.9809632229264782
6      1          4.7864875937923497     0.1279842962745490     5.3894720695029728
7      1          6.3819834583897999     1.9870704371662791     7.4249508084986573
8      1          6.3819834583897999    -1.1703421669631300     7.8312406394266674
9      1          7.9774793229872500     0.6887439739286001     9.8660314006055394
10     1          7.9774793229872500    -2.4686686302008090    10.2724625924671535
11     1          9.5729751875846993    -0.6095824893090788    12.3071442217288851
12     1          9.5729751875846993    -3.7669950934384877    12.7135719034995969
13     1         11.1684710521821504    -1.9079089525467576    14.7483642601743306
14     1         11.1684710521821504    -5.0653218757753393    15.1546553674990321
15     1         12.7639669167795997    -3.2062354157844370    17.1901191088335885
16     1         12.7639669167795997    -6.3636483390130181    17.5986308273026424
17     1         14.3594627813770490    -4.5045618790221154    19.6245544606644238
18     1         14.3594627813770490    -7.6619748022506986    20.0446686250608259
19     1         15.9549586459745001    -5.8028883422597950    22.0448409551680058
20     1         15.9549586459745001    -8.9603012654883756    22.4915236358008599
ITEM: TIMESTEP energy, energy_weight, force_weight, nsims
7        -38476.5144399908895139    1    1   22
ITEM: NUMBER OF ATOMS
20        
ITEM: BOX BOUNDS xy xz yz pp pp pp
   -1.5954958645974502     19.1459503751693987     -1.5954958645974502
  -11.2186493971237358      5.8820507841768341     15.9549586459745001
    0.0000000000000000     24.6129169552125653    -11.2186493971237358
ITEM: ATOMS id type x y z
1      1          3.1909917291948999    -0.0000000000000000     0.1166728687928989
2      1          1.5954958645974500     2.7246372227499069     0.4902180189926040
3      1          3.1909917291948999     4.5837233636416377     2.5292984303530308
4      1          3.1909917291948999     1.4263107595122280     2.9449270176757039
5      1          4.7864875937923497     3.2853969004039576     4.9725607035051622
6      1          4.7864875937923497     0.1279842962745490     5.3816107422789274
7      1          6.3819834583897999     1.9870704371662791     7.4165361633087699
8      1          6.3819834583897999    -1.1703421669631300     7.8224095698161209
9      1          7.9774793229872500     0.6887439739286001     9.8568170928883134
10     1          7.9774793229872500    -2.4686686302008090    10.2637588434266007
11     1          9.5729751875846993    -0.6095824893090788    12.2979130017554965
12     1          9.5729751875846993    -3.7669950934384877    12.7048132694013027
13     1         11.1684710521821504    -1.9079089525467576    14.7393015245642456
14     1         11.1684710521821504    -5.0653218757753393    15.1452042881955045
15     1         12.7639669167795997    -3.2062354157844370    17.1802372456466195
16     1         12.7639669167795997    -6.3636483390130181    17.5892812215361012
17     1         14.3594627813770490    -4.5045618790221154    19.6170218055884860
18     1         14.3594627813770490    -7.6619748022506986    20.0326676242664981
19     1         15.9549586459745001    -5.8028883422597950    22.0718128127590241
20     1         15.9549586459745001    -8.9603012654883756    22.4453487090827153
ITEM: TIMESTEP energy, energy_weight, force_weight, nsims
8        -38476.5346745211063535    1    1   22
ITEM: NUMBER OF ATOMS
20        
ITEM: BOX BOUNDS xy xz yz pp pp pp
   -1.5954958645974502     19.1459503751693987     -1.5954958645974502
  -10.9245484534107558      5.8820507841768341     15.9549586459744983
    0.0000000000000000     24.5832854060152535    -10.9245484534107558
ITEM: ATOMS id type x y z
1      1          3.1909917291948999    -0.0000000000000000     0.1533348109679650
2      1          1.5954958645974500     2.7246372227499069     0.4135598673846362
3      1          3.1909917291948999     4.5837233636416377     2.5211712935179444
4      1          3.1909917291948999     1.4263107595122280     2.9281312327090867
5      1          4.7864875937923497     3.2853969004039576     4.9602929358022729
6      1          4.7864875937923497     0.1279842962745490     5.3700012761697717
7      1          6.3819834583897999     1.9870704371662791     7.4043593388701625
8      1          6.3819834583897999    -1.1703421669631300     7.8101504177908998
9      1          7.9774793229872500     0.6887439739286001     9.8436102163195240
10     1          7.9774793229872500    -2.4686686302008090    10.2507762935763704
11     1          9.5729751875846993    -0.6095824893090788    12.2839581567253813
12     1          9.5729751875846993    -3.7669950934384877    12.6911012588417780
13     1         11.1684710521821504    -1.9079089525467576    14.7245374440316059
14     1         11.1684710521821504    -5.0653218757753393    15.1303553272828690
15     1         12.7639669167795997    -3.2062354157844370    17.1646626532147657
16     1         12.7639669167795997    -6.3636483390130181    17.5743859912433926
17     1         14.3594627813770490    -4.5045618790221154    19.6065467370390607
18     1         14.3594627813770490    -7.6619748022506986    20.0134524293708083
19     1         15.9549586459745001    -5.8028883422597950    22.1210695992892248
20     1         15.9549586459745001    -8.9603012654883756    22.3813118870612335
ITEM: TIMESTEP energy, energy_weight, force_weight, nsims
9        -38476.5489349253621185    1    1   22
ITEM: NUMBER OF ATOMS
20        
ITEM: BOX BOUNDS xy xz yz pp pp pp
   -1.5954958645974502     19.1459503751693951     -1.5954958645974502
  -10.6304443187060578      5.8820507841768341     15.9549586459744965
    0.0000000000000000     24.5683005088549535    -10.6304443187060578
ITEM: ATOMS id type x y z
1      1          3.1909917291948999    -0.0000000000000000     0.1947982383979506
2      1          1.5954958645974500     2.7246372227499069     0.3169793971137858
3      1          3.1909917291948999     4.5837233636416377     2.5179183965492027
4      1          3.1909917291948999     1.4263107595122280     2.9145880256120376
5      1          4.7864875937923497     3.2853969004039576     4.9522573804298142
6      1          4.7864875937923497     0.1279842962745490     5.3630461905968181
7      1          6.3819834583897999     1.9870704371662791     7.3972380026281170
8      1          6.3819834583897999    -1.1703421669631300     7.8032827653913266
9      1          7.9774793229872500     0.6887439739286001     9.8365249382840183
10     1          7.9774793229872500    -2.4686686302008090    10.2440729772508519
11     1          9.5729751875846993    -0.6095824893090788    12.2769389322186715
12     1          9.5729751875846993    -3.7669950934384877    12.6844965441606909
13     1         11.1684710521821504    -1.9079089525467576    14.7176921285741358
14     1         11.1684710521821504    -5.0653218757753393    15.1237611428744891
15     1         12.7639669167795997    -3.2062354157844370    17.1578776475009782
16     1         12.7639669167795997    -6.3636483390130181    17.5686993248827932
17     1         14.3594627813770490    -4.5045618790221154    19.6062844375189194
18     1         14.3594627813770490    -7.6619748022506986    20.0030048033502474
19     1         15.9549586459745001    -5.8028883422597950    22.2038758346618330
20     1         15.9549586459745001    -8.9603012654883756    22.3260924133858616
ITEM: TIMESTEP energy, energy_weight, force_weight, nsims
10       -38476.5323293069304782    1    1   22
ITEM: NUMBER OF ATOMS
20        
ITEM: BOX BOUNDS xy xz yz pp pp pp
   -1.5954958645974502     19.1459503751693987     -1.5954958645974502
  -10.3363433749930778      5.8820507841768341     15.9549586459744983
    0.0000000000000000     24.5837289538656130    -10.3363433749930778
ITEM: ATOMS id type x y z
1      1          3.1909917291948999     0.0000000000000000     0.2374400990735279
2      1          1.5954958645974500     2.7246372227499069     0.2415213774951682
3      1          3.1909917291948999     4.5837233636416377     2.5296944324266244
4      1          3.1909917291948999     1.4263107595122280     2.9192637857928267
5      1          4.7864875937923497     3.2853969004039576     4.9595660278863622
6      1          4.7864875937923497     0.1279842962745490     5.3718198223562394
7      1          6.3819834583897999     1.9870704371662791     7.4048861716046517
8      1          6.3819834583897999    -1.1703421669631300     7.8108999817480882
9      1          7.9774793229872500     0.6887439739286001     9.8436245757823055
10     1          7.9774793229872500    -2.4686686302008090    10.2512983398232667
11     1          9.5729751875846993    -0.6095824893090788    12.2837829712794484
12     1          9.5729751875846993    -3.7669950934384877    12.6914599263121399
13     1         11.1684710521821504    -1.9079089525467576    14.7241956888174084
14     1         11.1684710521821504    -5.0653218757753393    15.1302136472500930
15     1         12.7639669167795997    -3.2062354157844370    17.1632678707299355
16     1         12.7639669167795997    -6.3636483390130181    17.5755264516874057
17     1         14.3594627813770490    -4.5045618790221154    19.6158172062107141
18     1         14.3594627813770490    -7.6619748022506986    20.0053990044446621
19     1         15.9549586459745001    -5.8028883422597950    22.2935328101778474
20     1         15.9549586459745001    -8.9603012654883756    22.2976242997730232
ITEM: TIMESTEP energy, energy_weight, force_weight, nsims
11       -38476.4624862246491830    1    1   22
ITEM: NUMBER OF ATOMS
20        
ITEM: BOX BOUNDS xy xz yz pp pp pp
   -1.5954958645974502     19.1459503751693987     -1.5954958645974502
  -10.0422392402883709      5.8820507841768341     15.9549586459745001
    0.0000000000000000     24.6461383701052021    -10.0422392402883709
ITEM: ATOMS id type x y z
1      1          3.1909917291948999     0.0000000000000000     0.2812903883169513
2      1          1.5954958645974500     2.7246372227499069     0.2299530751793179
3      1          3.1909917291948999     4.5837233636416377     2.5615673342145140
4      1          3.1909917291948999     1.4263107595122280     2.9472095340595970
5      1          4.7864875937923497     3.2853969004039576     4.9887007396714296
6      1          4.7864875937923497     0.1279842962745490     5.4012477862812203
7      1          6.3819834583897999     1.9870704371662791     7.4337158245804087
8      1          6.3819834583897999    -1.1703421669631300     7.8395461526994161
9      1          7.9774793229872500     0.6887439739286001     9.8722902117831808
10     1          7.9774793229872500    -2.4686686302008090    10.2799508927580536
11     1          9.5729751875846993    -0.6095824893090788    12.3123299023879973
12     1          9.5729751875846993    -3.7669950934384877    12.7199924979579091
13     1         11.1684710521821504    -1.9079089525467576    14.7527365570416737
14     1         11.1684710521821504    -5.0653218757753393    15.1585723098466225
15     1         12.7639669167795997    -3.2062354157844370    17.1910432200383667
16     1         12.7639669167795997    -6.3636483390130181    17.6035918621440217
17     1         14.3594627813770490    -4.5045618790221154    19.6450935980285593
18     1         14.3594627813770490    -7.6619748022506986    20.0307380315678536
19     1         15.9549586459745001    -5.8028883422597950    22.3623487805121464
20     1         15.9549586459745001    -8.9603012654883756    22.3110130628703800
ITEM: TIMESTEP energy, energy_weight, force_weight, nsims
12       -38476.3565907636366319    1    1   22
ITEM: NUMBER OF ATOMS
20        
ITEM: BOX BOUNDS xy xz yz pp pp pp
   -1.5954958645974502     19.1459503751694058     -1.5954958645974502
   -9.7481382965753962      5.8820507841768341     15.9549586459745054
    0.0000000000000000     24.7420053346254072     -9.7481382965753962
ITEM: ATOMS id type x y z
1      1          3.1909917291948999     0.0000000000000000     0.3255465717083282
2      1          1.5954958645974500     2.7246372227499069     0.2703012509999499
3      1          3.1909917291948999     4.5837233636416377     2.6040183735846854
4      1          3.1909917291948999     1.4263107595122280     2.9896009018844327
5      1          4.7864875937923497     3.2853969004039576     5.0306900425383869
6      1          4.7864875937923497     0.1279842962745490     5.4437795577421397
7      1          6.3819834583897999     1.9870704371662791     7.4764365027516977
8      1          6.3819834583897999    -1.1703421669631300     7.8823092710607030
9      1          7.9774793229872500     0.6887439739286001     9.9158159771677461
10     1          7.9774793229872500    -2.4686686302008090    10.3237536362247138
11     1          9.5729751875846993    -0.6095824893090788    12.3564747201680269
12     1          9.5729751875846993    -3.7669950934384877    12.7643734491258982
13     1         11.1684710521821504    -1.9079089525467576    14.7978670721668504
14     1         11.1684710521821504    -5.0653218757753393    15.2037012294759339
15     1         12.7639669167795997    -3.2062354157844370    17.2363425386260189
16     1         12.7639669167795997    -6.3636483390130181    17.6494821523999192
17     1         14.3594627813770490    -4.5045618790221154    19.6905479988142496
18     1         14.3594627813770490    -7.6619748022506986    20.0761736055023405
19     1         15.9549586459745001    -5.8028883422597950    22.4098620091615146
20     1         14.3594627813770490    -3.0782514386090609    22.3546316861142635
ITEM: TIMESTEP energy, energy_weight, force_weight, nsims
13       -38476.2555845102178864    1    1   22
ITEM: NUMBER OF ATOMS
20        
ITEM: BOX BOUNDS xy xz yz pp pp pp
   -1.5954958645974502     19.1459503751693951     -1.5954958645974502
   -9.4540341618706893      5.8820507841768341     15.9549586459744965
    0.0000000000000000     24.8337846387405143     -9.4540341618706893
ITEM: ATOMS id type x y z
1      1          3.1909917291948999     0.0000000000000000     0.3635362855419123
2      1          1.5954958645974500     2.7246372227499069     0.3269218891436113
3      1          3.1909917291948999     4.5837233636416377     2.6456774088076709
4      1          3.1909917291948999     1.4263107595122280     3.0319093039243086
5      1          4.7864875937923497     3.2853969004039576     5.0732052208423157
6      1          4.7864875937923497     0.1279842962745490     5.4862992034344895
7      1          6.3819834583897999     1.9870704371662791     7.5184599492301576
8      1          6.3819834583897999    -1.1703421669631300     7.9243674993490112
9      1          7.9774793229872500     0.6887439739286001     9.9579708925054469
10     1          7.9774793229872500    -2.4686686302008090    10.3658536665046732
11     1          9.5729751875846993    -0.6095824893090788    12.3984461534813004
12     1          9.5729751875846993    -3.7669950934384877    12.8063653047862385
13     1         11.1684710521821504    -1.9079089525467576    14.8399339161328250
14     1         11.1684710521821504    -5.0653218757753393    15.2458669941855156
15     1         12.7639669167795997    -3.2062354157844370    17.2780392275514068
16     1         12.7639669167795997    -6.3636483390130181    17.6910987474329033
17     1         14.3594627813770490    -4.5045618790221154    19.7324115766070776
18     1         12.7639669167795997    -1.7799246562722089    20.1185755035998817
19     1         15.9549586459745001    -5.8028883422597950    22.4373485737184524
20     1         14.3594627813770490    -3.0782514386090609    22.4007373683118800
ITEM: TIMESTEP energy, energy_weight, force_weight, nsims
14       -38476.1858170756240725    1    1   22
ITEM: NUMBER OF ATOMS
20        
ITEM: BOX BOUNDS xy xz yz pp pp pp
   -1.5954958645974502     19.1459503751694022     -1.5954958645974502
   -9.1599332181577147      5.8820507841768341     15.9549586459745036
    0.0000000000000000     24.9006518704257935     -9.1599332181577147
ITEM: ATOMS id type x y z
1      1          3.1909917291948999    -0.0000000000000000     0.3874684044117011
2      1          1.5954958645974500     2.7246372227499069     0.3745148925862074
3      1          3.1909917291948999     4.5837233636416377     2.6741713694535170
4      1          3.1909917291948999     1.4263107595122280     3.0613832181301905
5      1          4.7864875937923497     3.2853969004039576     5.1025865962880514
6      1          4.7864875937923497     0.1279842962745490     5.5157019585248097
7      1          6.3819834583897999     1.9870704371662791     7.5482928500055717
8      1          6.3819834583897999    -1.1703421669631300     7.9541219017278895
9      1          7.9774793229872500     0.6887439739286001     9.9884604993787303
10     1          7.9774793229872500    -2.4686686302008090    10.3959025974201555
11     1          9.5729751875846993    -0.6095824893090788    12.4297293599976353
12     1          9.5729751875846993    -3.7669950934384877    12.8371775209233459
13     1         11.1684710521821504    -1.9079089525467576    14.8714928243345632
14     1         11.1684710521821504    -5.0653218757753393    15.2773260243461291
15     1         12.7639669167795997    -3.2062354157844370    17.3098891541988493
16     1         12.7639669167795997    -6.3636483390130181    17.7229971771546282
17     1         14.3594627813770490    -4.5045618790221154    19.7642008744116673
18     1         12.7639669167795997    -1.7799246562722089    20.1514165522784090
19     1         15.9549586459745001    -5.8028883422597950    22.4510356945424867
20     1         14.3594627813770490    -3.0782514386090609    22.4381006904690246
ITEM: TIMESTEP energy, energy_weight, force_weight, nsims
15       -38476.1567040110676317    1    1   22
ITEM: NUMBER OF ATOMS
20        
ITEM: BOX BOUNDS xy xz yz pp pp pp
   -1.5954958645974502     19.1459503751693987     -1.5954958645974502
   -8.8658290834530096      5.8820507841768341     15.9549586459745001
    0.0000000000000000     24.9285411381389537     -8.8658290834530096
ITEM: ATOMS id type x y z
1      1          3.1909917291948999    -0.0000000000000000     0.3942112890346629
2      1          1.5954958645974500     2.7246372227499069     0.4035133490244390
3      1          3.1909917291948999     4.5837233636416377     2.6860916381570967
4      1          3.1909917291948999     1.4263107595122280     3.0742847167904985
5      1          4.7864875937923497     3.2853969004039576     5.1151964383043103
6      1          4.7864875937923497     0.1279842962745490     5.5287965121847344