ITEM: TIMESTEP energy, energy_weight, force_weight, nsims
1        -76953.5155993398220744    1    1   21
ITEM: NUMBER OF ATOMS
40        
ITEM: BOX BOUNDS xy xz yz pp pp pp
    0.0000000000000000      5.5269388594556021      0.0000000000000004
  -16.7072397778379802      6.0945720611382681      0.0000000000000020
    0.0000000000000000     27.1904057901218046    -16.7072397778379802
ITEM: ATOMS id type x y z
1      1          0.0000000000000000     0.0000000000000000     0.0000000000000000
2      1          2.7634694297277997    -0.8353619888918992     1.3595202895060901
3      1          4.6057821986483711     3.0472871359569060     0.0000000000000000
4      1          1.8423127689205712     2.2119251470650068     1.3595202895060901
5      1          0.0000000000000000     4.4238502941300135     2.7190400263182939
6      1          2.7634694297277997     3.5884883052381138     4.0785603158243839
7      1          4.6057821986483711     1.3765631581731073     2.7190400263182939
8      1          1.8423127689205712     0.5412011692812080     4.0785603158243839
9      1          0.0000000000000000     2.7531263163462145     5.4380806053304740
10     1          2.7634694297277997     1.9177643274543150     6.7976003421426778
11     1          4.6057821986483711    -0.2941608196106913     5.4380806053304740
12     1          1.8423127689205712    -1.1295228085025903     6.7976003421426778
13     1          0.0000000000000000     1.0824028912563017     8.1571206316487679
14     1          2.7634694297277997     0.2470409023644026     9.5166409211548579
15     1          4.6057821986483711    -1.9648847973944898     8.1571206316487679
16     1          1.8423127689205712    -2.8002462335925031     9.5166409211548579
17     1          0.0000000000000000    -0.5883210865274966    10.8761612106609480
18     1          2.7634694297277997    -1.4236830754193959    12.2356815001670380
19     1          4.6057821986483711    -3.6356082224844024    10.8761612106609480
20     1          1.8423127689205712    -4.4709702113763017    12.2356815001670380
21     1          0.0000000000000000    -2.2590450643112954    13.5952017896731281
22     1          2.7634694297277997    -3.0944070532031946    14.9547220791792181
23     1          4.6057821986483711    -5.3063322002682005    13.5952017896731281
24     1          1.8423127689205712    -6.1416941891601002    14.9547220791792181
25     1          0.0000000000000000    -3.9297690420950939    16.3142423686853064
26     1          2.7634694297277997   -10.8597053029008048    17.6737626581914000
27     1          4.6057821986483711    -6.9770561780519991    16.3142423686853064
28     1          1.8423127689205712    -7.8124181669438988    17.6737626581914000
29     1          0.0000000000000000   -11.6950672917927037    19.0332829476974901
30     1          2.7634694297277997   -12.5304292806846043    20.3928032372035766
31     1          4.6057821986483711    -8.6477801558357985    19.0332829476974901
32     1          1.8423127689205712    -9.4831421447276973    20.3928032372035766
33     1          0.0000000000000000   -13.3657912695765031    21.7523235267096666
34     1          2.7634694297277997   -14.2011532584684019    23.1118438162157567
35     1          4.6057821986483711   -10.3185041336195962    21.7523235267096666
36     1          1.8423127689205712   -11.1538661225114950    23.1118438162157567
37     1          0.0000000000000000   -15.0365152473603008    24.4713635530279596
38     1          2.7634694297277997   -15.8718772362521996    25.8308838425340497
39     1          4.6057821986483711   -11.9892281114033938    24.4713635530279596
40     1          1.8423127689205712   -12.8245901002952944    25.8308838425340497
ITEM: TIMESTEP energy, energy_weight, force_weight, nsims
2        -76953.4310412869090214    1    1   21
ITEM: NUMBER OF ATOMS
40        
ITEM: BOX BOUNDS xy xz yz pp pp pp
    0.0000000000000000      5.5269388594556021      0.0000000000000004
  -16.4025120038218972      6.0945720611382681      0.0000000000000019
    0.0000000000000000     27.2506549506287215    -16.4025120038218972
ITEM: ATOMS id type x y z
1      1          0.0000000000000000    -0.0000000000000000     0.0217833241267724
2      1          2.7634694297277997     5.2592122830219132     1.3849574729128484
3      1          4.6057821986483711     3.0472871359569060     0.0217833241267724
4      1          1.8423127689205712     2.2119251470650068     1.3849574729128484
5      1          0.0000000000000000     4.4238502941300135     2.7444633923779036
6      1          2.7634694297277997     3.5884883052381138     4.1025499939438506
7      1          4.6057821986483711     1.3765631581731073     2.7444633923779036
8      1          1.8423127689205712     0.5412011692812080     4.1025499939438506
9      1          0.0000000000000000     2.7531263163462145     5.4629905187700398
10     1          2.7634694297277997     1.9177643274543150     6.8230463686516112
11     1          4.6057821986483711    -0.2941608196106913     5.4629905187700398
12     1          1.8423127689205712    -1.1295228085025903     6.8230463686516112
13     1          0.0000000000000000     1.0824028912563017     8.1835078958454659
14     1          2.7634694297277997     0.2470409023644026     9.5437417131583118
15     1          4.6057821986483711    -1.9648847973944898     8.1835078958454659
16     1          1.8423127689205712    -2.8002462335925031     9.5437417131583118
17     1          0.0000000000000000    -0.5883210865274966    10.9040888327177772
18     1          2.7634694297277997    -1.4236830754193959    12.2639335535349154
19     1          4.6057821986483711    -3.6356082224844024    10.9040888327177772
20     1          1.8423127689205712    -4.4709702113763017    12.2639335535349154
21     1          0.0000000000000000    -2.2590450643112954    13.6241601858272467
22     1          2.7634694297277997    -3.0944070532031946    14.9840529910124634
23     1          4.6057821986483711    -5.3063322002682005    13.6241601858272467
24     1          1.8423127689205712    -6.1416941891601002    14.9840529910124634
25     1          0.0000000000000000    -3.9297690420950939    16.3443205226523496
26     1          2.7634694297277997    -4.7651310309869928    17.7046891972733675
27     1          4.6057821986483711    -6.9770561780519991    16.3443205226523496
28     1          1.8423127689205712    -7.8124181669438988    17.7046891972733675
29     1          0.0000000000000000    -5.6004930198788934    19.0650534503432958
30     1          2.7634694297277997    -6.4358550087707922    20.4251175906331568
31     1          4.6057821986483711    -8.6477801558357985    19.0650534503432958
32     1          1.8423127689205712    -9.4831421447276973    20.4251175906331568
33     1          0.0000000000000000    -7.2712169976626919    21.7855746962759262
34     1          2.7634694297277997    -8.1065789865545899    23.1436507966580400
35     1          4.6057821986483711   -10.3185041336195962    21.7855746962759262
36     1          1.8423127689205712   -11.1538661225114950    23.1436507966580400
37     1          0.0000000000000000    -8.9419409754464905    24.5032197232260884
38     1          2.7634694297277997    -9.7773029643383893    25.8663319702969439
39     1          4.6057821986483711   -11.9892281114033938    24.5032197232260884
40     1          1.8423127689205712   -12.8245901002952944    25.8663319702969439
ITEM: TIMESTEP energy, energy_weight, force_weight, nsims
3        -76953.2571123014640762    1    1   21
ITEM: NUMBER OF ATOMS
40        
ITEM: BOX BOUNDS xy xz yz pp pp pp
    0.0000000000000000      5.5269388594556021      0.0000000000000004
  -16.0977842298058107      6.0945720611382681      0.0000000000000019
    0.0000000000000000     27.3511678607267896    -16.0977842298058107
ITEM: ATOMS id type x y z
1      1          0.0000000000000000     0.0000000000000000     0.0652687263790831
2      1          2.7634694297277997    -0.8353619888918992     1.4344031260311962
3      1          4.6057821986483711     3.0472871359569060     0.0652687263790831
4      1          1.8423127689205712     2.2119251470650068     1.4344031260311962
5      1          0.0000000000000000     4.4238502941300135     2.7908714398990946
6      1          2.7634694297277997     3.5884883052381138     4.1485136755807419
7      1          4.6057821986483711     1.3765631581731073     2.7908714398990946
8      1          1.8423127689205712     0.5412011692812080     4.1485136755807419
9      1          0.0000000000000000     2.7531263163462145     5.5079549298611417
10     1          2.7634694297277997     1.9177643274543150     6.8684794641579945
11     1          4.6057821986483711    -0.2941608196106913     5.5079549298611417
12     1          1.8423127689205712    -1.1295228085025903     6.8684794641579945
13     1          0.0000000000000000     1.0824028912563017     8.2291228276403263
14     1          2.7634694297277997     0.2470409023644026     9.5901337325568115
15     1          4.6057821986483711    -1.9648847973944898     8.2291228276403263
16     1          1.8423127689205712    -2.8002462335925031     9.5901337325568115
17     1          0.0000000000000000    -0.5883210865274966    10.9509920939607763
18     1          2.7634694297277997    -1.4236830754193959    12.3114138271948423
19     1          4.6057821986483711    -3.6356082224844024    10.9509920939607763
20     1          1.8423127689205712    -4.4709702113763017    12.3114138271948423
21     1          0.0000000000000000    -2.2590450643112954    13.6722578185577710
22     1          2.7634694297277997    -3.0944070532031946    15.0327066337922499
23     1          4.6057821986483711    -5.3063322002682005    13.6722578185577710
24     1          1.8423127689205712    -6.1416941891601002    15.0327066337922499
25     1          0.0000000000000000    -3.9297690420950939    16.3935401239713485
26     1          2.7634694297277997    -4.7651310309869928    17.7545488181122906
27     1          4.6057821986483711    -6.9770561780519991    16.3935401239713485
28     1          1.8423127689205712    -7.8124181669438988    17.7545488181122906
29     1          0.0000000000000000    -5.6004930198788934    19.1151407810632250
30     1          2.7634694297277997    -6.4358550087707922    20.4756310483391495
31     1          4.6057821986483711    -8.6477801558357985    19.1151407810632250
32     1          1.8423127689205712    -9.4831421447276973    20.4756310483391495
33     1          0.0000000000000000    -7.2712169976626919    21.8350457733130270
34     1          2.7634694297277997    -8.1065789865545899    23.1926520838920851
35     1          4.6057821986483711   -10.3185041336195962    21.8350457733130270
36     1          1.8423127689205712   -11.1538661225114950    23.1926520838920851
37     1          0.0000000000000000    -8.9419409754464905    24.5491314516377024
38     1          2.7634694297277997    -9.7773029643383893    25.9182680620653585
39     1          4.6057821986483711   -11.9892281114033938    24.5491314516377024
40     1          1.8423127689205712   -12.8245901002952944    25.9182680620653585
ITEM: TIMESTEP energy, energy_weight, force_weight, nsims
4        -76953.1019368659908650    1    1   21
ITEM: NUMBER OF ATOMS
40        
ITEM: BOX BOUNDS xy xz yz pp pp pp
    0.0000000000000000      5.5269388594556021      0.0000000000000004
  -15.7930509288508656      6.0945720611382681      0.0000000000000019
    0.0000000000000000     27.4453855874639281    -15.7930509288508656
ITEM: ATOMS id type x y z
1      1          0.0000000000000000     0.0000000000000000     0.1028403040517763
2      1          2.7634694297277997    -0.8353619888918992     1.4858594795066136
3      1          4.6057821986483711     3.0472871359569060     0.1028403040517763
4      1          1.8423127689205712     2.2119251470650068     1.4858594795066136
5      1          0.0000000000000000     4.4238502941300135     2.8338936846749831
6      1          2.7634694297277997     3.5884883052381138     4.1947868657937617
7      1          4.6057821986483711     1.3765631581731073     2.8338936846749831
8      1          1.8423127689205712     0.5412011692812080     4.1947868657937617
9      1          0.0000000000000000     2.7531263163462145     5.5513800884798847
10     1          2.7634694297277997     1.9177643274543150     6.9130033782219966
11     1          4.6057821986483711    -0.2941608196106913     5.5513800884798847
12     1          1.8423127689205712    -1.1295228085025903     6.9130033782219966
13     1          0.0000000000000000     1.0824028912563017     8.2728049889160342
14     1          2.7634694297277997     0.2470409023644026     9.6344896276794856
15     1          4.6057821986483711    -1.9648847973944898     8.2728049889160342
16     1          1.8423127689205712    -2.8002462335925031     9.6344896276794856
17     1          0.0000000000000000    -0.5883210865274966    10.9953363825118444
18     1          2.7634694297277997    -1.4236830754193959    12.3561245517922931
19     1          4.6057821986483711    -3.6356082224844024    10.9953363825118444
20     1          1.8423127689205712    -4.4709702113763017    12.3561245517922931
21     1          0.0000000000000000    -2.2590450643112954    13.7170232598499329
22     1          2.7634694297277997    -3.0944070532031946    15.0778114291303815
23     1          4.6057821986483711    -5.3063322002682005    13.7170232598499329
24     1          1.8423127689205712    -6.1416941891601002    15.0778114291303815
25     1          0.0000000000000000    -3.9297690420950939    16.4386371815950767
26     1          2.7634694297277997    -4.7651310309869928    17.8003290053790479
27     1          4.6057821986483711    -6.9770561780519991    16.4386371815950767
28     1          1.8423127689205712    -7.8124181669438988    17.8003290053790479
29     1          0.0000000000000000    -5.6004930198788934    19.1601206675831328
30     1          2.7634694297277997    -6.4358550087707922    20.5217312453658707
31     1          4.6057821986483711    -8.6477801558357985    19.1601206675831328
32     1          1.8423127689205712    -9.4831421447276973    20.5217312453658707
33     1          0.0000000000000000    -7.2712169976626919    21.8783045710720998
34     1          2.7634694297277997    -8.1065789865545899    23.2391966468031050
35     1          4.6057821986483711   -10.3185041336195962    21.8783045710720998
36     1          1.8423127689205712   -11.1538661225114950    23.2391966468031050
37     1          0.0000000000000000    -8.9419409754464905    24.5872540651146849
38     1          2.7634694297277997    -9.7773029643383893    25.9702295777525300
39     1          4.6057821986483711   -11.9892281114033938    24.5872540651146849
40     1          1.8423127689205712   -12.8245901002952944    25.9702295777525300
ITEM: TIMESTEP energy, energy_weight, force_weight, nsims
5        -76953.0105739231948974    1    1   21
ITEM: NUMBER OF ATOMS
40        
ITEM: BOX BOUNDS xy xz yz pp pp pp
    0.0000000000000000      5.5269388594556021      0.0000000000000004
  -15.4883231548347808      6.0945720611382681      0.0000000000000019
    0.0000000000000000     27.5111561598914491    -15.4883231548347808
ITEM: ATOMS id type x y z
1      1          0.0000000000000000    -0.0000000000000000     0.1251039191654353
2      1          2.7634694297277997    -0.8353619888918992     1.5270550709894519
3      1          4.6057821986483711     3.0472871359569060     0.1251039191654353
4      1          1.8423127689205712     2.2119251470650068     1.5270550709894519
5      1          0.0000000000000000     4.4238502941300135     2.8639712859481405
6      1          2.7634694297277997     3.5884883052381138     4.2299625154708806
7      1          4.6057821986483711     1.3765631581731073     2.8639712859481405
8      1          1.8423127689205712     0.5412011692812080     4.2299625154708806
9      1          0.0000000000000000     2.7531263163462145     5.5825663936882490
10     1          2.7634694297277997     1.9177643274543150     6.9456720084324681
11     1          4.6057821986483711    -0.2941608196106913     5.5825663936882490
12     1          1.8423127689205712    -1.1295228085025903     6.9456720084324681
13     1          0.0000000000000000     1.0824028912563017     8.3044141049471474
14     1          2.7634694297277997     0.2470409023644026     9.6668122715173546
15     1          4.6057821986483711    -1.9648847973944898     8.3044141049471474
16     1          1.8423127689205712    -2.8002462335925031     9.6668122715173546
17     1          0.0000000000000000    -0.5883210865274966    11.0271643653217915
18     1          2.7634694297277997    -1.4236830754193959    12.3876225763523315
19     1          4.6057821986483711    -3.6356082224844024    11.0271643653217915
20     1          1.8423127689205712    -4.4709702113763017    12.3876225763523315
21     1          0.0000000000000000    -2.2590450643112954    13.7476618454173245
22     1          2.7634694297277997    -3.0944070532031946    15.1081913539591497
23     1          4.6057821986483711    -5.3063322002682005    13.7476618454173245
24     1          1.8423127689205712    -6.1416941891601002    15.1081913539591497
25     1          0.0000000000000000    -3.9297690420950939    16.4684887310688808
26     1          2.7634694297277997    -4.7651310309869928    17.8310621016009314
27     1          4.6057821986483711    -6.9770561780519991    16.4684887310688808
28     1          1.8423127689205712    -7.8124181669438988    17.8310621016009314
29     1          0.0000000000000000    -5.6004930198788934    19.1897771161151987
30     1          2.7634694297277997    -6.4358550087707922    20.5530910964544198
31     1          4.6057821986483711    -8.6477801558357985    19.1897771161151987
32     1          1.8423127689205712    -9.4831421447276973    20.5530910964544198
33     1          0.0000000000000000    -7.2712169976626919    21.9057364267132328
34     1          2.7634694297277997    -8.1065789865545899    23.2718962278711885
35     1          4.6057821986483711   -10.3185041336195962    21.9057364267132328
36     1          1.8423127689205712   -11.1538661225114950    23.2718962278711885
37     1          0.0000000000000000    -8.9419409754464905    24.6088671595245856
38     1          2.7634694297277997    -9.7773029643383893    26.0108857400026920
39     1          4.6057821986483711   -11.9892281114033938    24.6088671595245856
40     1          1.8423127689205712   -12.8245901002952944    26.0108857400026920
ITEM: TIMESTEP energy, energy_weight, force_weight, nsims
6        -76952.9817537893250119    1    1   21
ITEM: NUMBER OF ATOMS
40        
ITEM: BOX BOUNDS xy xz yz pp pp pp
    0.0000000000000000      5.5269388594556021      0.0000000000000004
  -15.1835953808187050      6.0945720611382681      0.0000000000000019
    0.0000000000000000     27.5483192967824237    -15.1835953808187050
ITEM: ATOMS id type x y z
1      1          0.0000000000000000    -0.0000000000000000     0.1326205560142950
2      1          2.7634694297277997    -0.8353619888918992     1.5492529155306833
3      1          4.6057821986483711     3.0472871359569060     0.1326205560142950
4      1          1.8423127689205712     2.2119251470650068     1.5492529155306833
5      1          0.0000000000000000     4.4238502941300135     2.8777228625243518
6      1          2.7634694297277997     3.5884883052381138     4.2482942662799230
7      1          4.6057821986483711     1.3765631581731073     2.8777228625243518
8      1          1.8423127689205712     0.5412011692812080     4.2482942662799230
9      1          0.0000000000000000     2.7531263163462145     5.5981827594356401
10     1          2.7634694297277997     1.9177643274543150     6.9626082071794970
11     1          4.6057821986483711    -0.2941608196106913     5.5981827594356401
12     1          1.8423127689205712    -1.1295228085025903     6.9626082071794970
13     1          0.0000000000000000     1.0824028912563017     8.3203598762505617
14     1          2.7634694297277997     0.2470409023644026     9.6836058752418097
15     1          4.6057821986483711    -1.9648847973944898     8.3203598762505617
16     1          1.8423127689205712    -2.8002462335925031     9.6836058752418097
17     1          0.0000000000000000    -0.5883210865274966    11.0439259128008640
18     1          2.7634694297277997    -1.4236830754193959    12.4052059796398044
19     1          4.6057821986483711    -3.6356082224844024    11.0439259128008640
20     1          1.8423127689205712    -4.4709702113763017    12.4052059796398044
21     1          0.0000000000000000    -2.2590450643112954    13.7651949535611760
22     1          2.7634694297277997    -3.0944070532031946    15.1265700837484989
23     1          4.6057821986483711    -5.3063322002682005    13.7651949535611760
24     1          1.8423127689205712    -6.1416941891601002    15.1265700837484989
25     1          0.0000000000000000    -3.9297690420950939    16.4869779996354175
26     1          2.7634694297277997    -4.7651310309869928    17.8504345749972124
27     1          4.6057821986483711    -6.9770561780519991    16.4869779996354175
28     1          1.8423127689205712    -7.8124181669438988    17.8504345749972124
29     1          0.0000000000000000    -5.6004930198788934    19.2082630685184235
30     1          2.7634694297277997    -6.4358550087707922    20.5728902495306514
31     1          4.6057821986483711    -8.6477801558357985    19.2082630685184235
32     1          1.8423127689205712    -9.4831421447276973    20.5728902495306514
33     1          0.0000000000000000    -7.2712169976626919    21.9228052719928925
34     1          2.7634694297277997    -8.1065789865545899    23.2935098749749798
35     1          4.6057821986483711   -10.3185041336195962    21.9228052719928925
36     1          1.8423127689205712   -11.1538661225114950    23.2935098749749798
37     1          0.0000000000000000    -8.9419409754464905    24.6219731896420129
38     1          2.7634694297277997    -9.7773029643383893    26.0386613712408810
39     1          4.6057821986483711   -11.9892281114033938    24.6219726369481258
40     1          1.8423127689205712   -12.8245901002952944    26.0386613712408810
ITEM: TIMESTEP energy, energy_weight, force_weight, nsims
7        -76952.9891382819478167    1    1   21
ITEM: NUMBER OF ATOMS
40        
ITEM: BOX BOUNDS xy xz yz pp pp pp
    0.0000000000000000      5.5269388594556021      0.0000000000000004
  -14.8788676068026149      6.0945720611382681      0.0000000000000019
    0.0000000000000000     27.5493307265937126    -14.8788676068026149
ITEM: ATOMS id type x y z
1      1          0.0000000000000000     0.0000000000000000     0.1358217590016916
2      1          2.7634694297277997    -0.8353619888918992     1.5504765797941671
3      1          4.6057821986483711     3.0472871359569060     0.1358217590016916
4      1          1.8423127689205712     2.2119251470650068     1.5504765797941671
5      1          0.0000000000000000     4.4238502941300135     2.8790344051157004
6      1          2.7634694297277997     3.5884883052381138     4.2502806481060116
7      1          4.6057821986483711     1.3765631581731073     2.8790344051157004
8      1          1.8423127689205712     0.5412011692812080     4.2502806481060116
9      1          0.0000000000000000     2.7531263163462145     5.6000989491382134
10     1          2.7634694297277997     1.9177643274543150     6.9644829448406238
11     1          4.6057821986483711    -0.2941608196106913     5.6000989491382134
12     1          1.8423127689205712    -1.1295228085025903     6.9644829448406238
13     1          0.0000000000000000     1.0824028912563017     8.3222207965645403
14     1          2.7634694297277997     0.2470409023644026     9.6853695214318627
15     1          4.6057821986483711    -1.9648847973944898     8.3222207965645403
16     1          1.8423127689205712    -2.8002462335925031     9.6853695214318627
17     1          0.0000000000000000    -0.5883210865274966    11.0450534083281919
18     1          2.7634694297277997    -1.4236830754193959    12.4057420927091719
19     1          4.6057821986483711    -3.6356082224844024    11.0450534083281919
20     1          1.8423127689205712    -4.4709702113763017    12.4057420927091719
21     1          0.0000000000000000    -2.2590450643112954    13.7658907951635818
22     1          2.7634694297277997    -3.0944070532031946    15.1265960603611394
23     1          4.6057821986483711    -5.3063322002682005    13.7658907951635818
24     1          1.8423127689205712    -6.1416941891601002    15.1265960603611394
25     1          0.0000000000000000    -3.9297690420950939    16.4863136615845107
26     1          2.7634694297277997    -4.7651310309869928    17.8495242881670606
27     1          4.6057821986483711    -6.9770561780519991    16.4863136615845107
28     1          1.8423127689205712    -7.8124181669438988    17.8495242881670606
29     1          0.0000000000000000    -5.6004930198788934    19.2073168565856847
30     1          2.7634694297277997    -6.4358550087707922    20.5717997844936775
31     1          4.6057821986483711    -8.6477801558357985    19.2073168565856847
32     1          1.8423127689205712    -9.4831421447276973    20.5717997844936775
33     1          0.0000000000000000    -7.2712169976626919    21.9216855141799662
34     1          2.7634694297277997    -8.1065789865545899    23.2930146612531708
35     1          4.6057821986483711   -10.3185041336195962    21.9216855141799662
36     1          1.8423127689205712   -11.1538661225114950    23.2930146612531708
37     1          0.0000000000000000    -8.9419409754464905    24.6216249924938673
38     1          2.7634694297277997    -9.7773029643383893    26.0363140803072710
39     1          4.6057821986483711   -11.9892281114033938    24.6216249924938673
40     1          1.8423127689205712   -12.8245901002952944    26.0363140803072710
ITEM: TIMESTEP energy, energy_weight, force_weight, nsims
8        -76952.9946288614009973    1    1   21
ITEM: NUMBER OF ATOMS
40        
ITEM: BOX BOUNDS xy xz yz pp pp pp
    0.0000000000000000      5.5269388594556021      0.0000000000000004
  -14.5741398327865408      6.0945720611382681      0.0000000000000019
    0.0000000000000000     27.5206901294240005    -14.5741398327865408
ITEM: ATOMS id type x y z
1      1          0.0000000000000000    -0.0000000000000000     0.1455668575986837
2      1          2.7634694297277997     5.2592122830219132     1.5264144987756412
3      1          4.6057821986483711     3.0472871359569060     0.1455668575986837
4      1          1.8423127689205712     2.2119251470650068     1.5264144987756412
5      1          0.0000000000000000     4.4238502941300135     2.8730498357186822
6      1          2.7634694297277997     3.5884883052381138     4.2351606014681993
7      1          4.6057821986483711     1.3765631581731073     2.8730498357186822
8      1          1.8423127689205712     0.5412011692812080     4.2351606014681993
9      1          0.0000000000000000     2.7531263163462145     5.5899979156786728
10     1          2.7634694297277997     1.9177643274543150     6.9516195473391269
11     1          4.6057821986483711    -0.2941608196106913     5.5899979156786728
12     1          1.8423127689205712    -1.1295228085025903     6.9516195473391269
13     1          0.0000000000000000     1.0824028912563017     8.3102599481787909
14     1          2.7634694297277997     0.2470409023644026     9.6723115756825120
15     1          4.6057821986483711    -1.9648847973944898     8.3102599481787909
16     1          1.8423127689205712    -2.8002462335925031     9.6723115756825120
17     1          0.0000000000000000    -0.5883210865274966    11.0322789945423327
18     1          2.7634694297277997    -1.4236830754193959    12.3925592381415992
19     1          4.6057821986483711    -3.6356082224844024    11.0322789945423327
20     1          1.8423127689205712    -4.4709702113763017    12.3925592381415992
21     1          0.0000000000000000    -2.2590450643112954    13.7522801555282879
22     1          2.7634694297277997    -3.0944070532031946    15.1125720056991568
23     1          4.6057821986483711    -5.3063322002682005    13.7522801555282879
24     1          1.8423127689205712    -6.1416941891601002    15.1125720056991568
25     1          0.0000000000000000    -3.9297690420950939    16.4724034618630313
26     1          2.7634694297277997    -4.7651310309869928    17.8345169910819799
27     1          4.6057821986483711    -6.9770561780519991    16.4724034618630313
28     1          1.8423127689205712    -7.8124181669438988    17.8345169910819799
29     1          0.0000000000000000    -5.6004930198788934    19.1929385251428108
30     1          2.7634694297277997    -6.4358550087707922    20.5546811967642853
31     1          4.6057821986483711    -8.6477801558357985    19.1929385251428108
32     1          1.8423127689205712    -9.4831421447276973    20.5546811967642853
33     1          0.0000000000000000    -7.2712169976626919    21.9093294896657689
34     1          2.7634694297277997    -8.1065789865545899    23.2715413983964119
35     1          4.6057821986483711   -10.3185041336195962    21.9093294896657689
36     1          1.8423127689205712   -11.1538661225114950    23.2715413983964119
37     1          0.0000000000000000    -8.9419409754464905    24.6180822246849544
38     1          2.7634694297277997    -9.7773029643383893    25.9989707652094744
39     1          4.6057821986483711   -11.9892281114033938    24.6180822246849544
40     1          1.8423127689205712   -12.8245901002952944    25.9989707652094744
ITEM: TIMESTEP energy, energy_weight, force_weight, nsims
9        -76952.9654047743533738    1    1   21
ITEM: NUMBER OF ATOMS