ITEM: TIMESTEP energy, energy_weight, force_weight, nsims
1        -105799.9468386447697412    1    1   100
ITEM: NUMBER OF ATOMS
55        
ITEM: BOX BOUNDS xy xz yz pp pp pp
   -4.8957831425905702      9.3815188588964986     -4.7614773186066097
   -0.2349882843776386      8.0833887128721340     -0.1343058239839601
    0.0000000000000000     15.3880738343804193     -0.2349882843776386
ITEM: ATOMS id type x y z
1      1          0.1561957219374255    -0.0961680735187762     0.1772835000284530
2      1         -0.0331936900265476     1.8676887230111752     2.7722538332340894
3      1         -0.1019545943509436    -0.0373919197159038     5.2236297006335706
4      1         -0.1010248858320270     1.6644587562746722     7.5967909071545456
5      1         -0.0397222890004537    -0.2078850763942875    10.0744378418145946
6      1         -0.2186222247282946     1.6529110447112565    12.6608137655935966
7      1         -1.5435882054485355     2.7262140294340558    -0.0422421649659533
8      1         -1.7460873518659306     4.5462108631741440     2.3813024885867256
9      1         -1.7426949946465535     2.6919283306123325     5.2022614151286621
10     1         -1.7134696870973192     4.4744610069413033     7.7737141568588175
11     1         -1.7993659356174898     2.6394331036854908    10.3563581124357516
12     1         -1.7562090725627939     4.3924881096079247    12.7082260856026874
13     1         -3.1308961650833003     5.2894645092258772    -0.1391992242207627
14     1         -3.2641109184239729     7.2513136607200241     2.7335400575109676
15     1         -3.1531697671580927     5.2503492044955946     5.2156038112497844
16     1         -3.3006312950378853     7.0123691898395881     7.7139060359814655
17     1         -3.2487533720519597     5.2631671737125050    10.0544120516583941
18     1         -3.3558893792686715     6.9131549371473282    12.7971047189681020
19     1          3.0561592332457876    -0.0016717866606554    -0.0845453098044894
20     1          2.9235861757950632     1.8326440593137674     2.5009159158857703
21     1          3.1690517404343188    -0.0226751310819528     5.2409404792320062
22     1          2.9785843919534587     1.6068233951650415     7.5058370818175444
23     1          3.0304548097242967    -0.1894166183686639    10.2290677882544703
24     1          2.9760438766464694     1.5498700704764528    12.7079146191765719
25     1          1.6799542109739114     2.5863008716281306    -0.0535243795456622
26     1          1.3839194452295467     4.5326564447268103     2.4611889361258870
27     1          1.3381357568943599     2.7083281637295689     5.0888754400481533
28     1          1.3463520911109814     4.4312994531271785     7.5431107943958260
29     1          1.6248424784373241     2.4371628663282530    10.3145690748306809
30     1          1.3764536325216368     4.2172131927671606    12.6210511360620501
31     1         -0.1257939719232855     5.3155516987168108     0.0658019732763001
32     1         -0.0456964402097990     7.2464352709133983     2.7001934487270201
33     1         -0.1094560568305172     5.2503107402682723     5.3224846411535349
34     1         -0.2002588397138906     7.0567766093581747     7.6863834741051216
35     1         -0.0728287309016135     5.1500420048562718    10.2381941298004051
36     1         -0.2413977380620376     7.0315018594004224    13.0232856334410076
37     1          6.2442366939259486    -0.0116602897897225    -0.1101549799855050
38     1          6.1360940497356760     1.7175309466113355     2.3530791272516214
39     1          6.3254543789911866    -0.1505902644192348     5.0881296092988713
40     1          6.0183165856773178     1.7931666279555309     7.5463502328578027
41     1          6.1837971968293930    -0.2381948875236103    10.3090452365265630
42     1          6.0820555629565467     1.5134125500388951    12.6704513999173418
43     1          4.6286387641721802     2.7877108237060080     0.0696193132999850
44     1          4.6045686012359104     4.4371150566678086     2.4548554727442458
45     1          4.6948694728603328     2.6880434436528629     5.2090405006561014
46     1          4.5450644415695871     4.3880121869603439     7.5304588780627189
47     1          4.6359206991104562     2.4326269019599769    10.1503924947999931
48     1          4.5363827840175643     4.3737175666750439    13.0369582590259654
49     1          3.1246133619034975     5.4869154603453003     0.2051297243054296
50     1          3.0741989558595595     7.1327490872294046     2.7550856537223090
51     1          3.0655895360027503     5.2158242769429695     5.1633046580670952
52     1          3.0899486497198749     7.0676122636401999     7.7192065941367423
53     1          3.0059587258318321     5.2324849162844824    10.4531791396671068
54     1          2.9276352393345633     6.9398847606800960    12.9491585003293235
55     1          1.4721310526040927     0.9110777606147605     1.3910024919680135
ITEM: TIMESTEP energy, energy_weight, force_weight, nsims
2        -105801.5704002002894413    1    1   100
ITEM: NUMBER OF ATOMS
55        
ITEM: BOX BOUNDS xy xz yz pp pp pp
   -4.8549641540355140      9.3815188588964986     -4.7473018436108179
   -0.1879868748945677      8.0917288831376943     -0.1076623104246963
    0.0000000000000000     15.4200272876138200     -0.1879868748945677
ITEM: ATOMS id type x y z
1      1         -0.1363378609687993     0.1035381947343253     0.1451808806451951
2      1          0.0149532029091951     1.6803210283612944     2.5696786965139378
3      1          0.0114126176918476    -0.1580513863677152     5.1235035643082254
4      1         -0.1366906060778938     1.7533233173617977     7.6618414207702479
5      1         -0.0136116457123729    -0.1418992253483531    10.3480170040183062
6      1         -0.2136884839604009     1.7327768529089282    12.8251695326344901
7      1         -1.4728337283666242     2.6201165563550228    -0.0722639634663080
8      1         -1.6726112961630533     4.5336471331183104     2.6740837435908249
9      1         -1.5746682392761737     2.5504662840428036     5.0965964300690256
10     1         -1.6537732062943888     4.4219929864191529     7.6367543011896730
11     1         -1.6275659333620618     2.5478009945349909    10.4098412132984333
12     1         -1.6389288290039572     4.3033458555625757    12.8287579635980187
13     1         -3.2284799097978842     5.4333441732053434    -0.1745853752046344
14     1         -3.0606679912093728     7.1093947341820680     2.5250001511003290
15     1         -3.2052634650777727     5.2784309048959290     4.9320652286254703
16     1         -3.2134676033198781     7.1123048813320979     7.8843982545079641
17     1         -3.3333221356535963     5.3727658296296772    10.4486459897544872
18     1         -3.3124510706482098     7.0728527800747800    12.6383356464076790
19     1          3.2460261645196780    -0.0790214715003711    -0.1757721373402848
20     1          3.0720458972814426     1.7428507278596110     2.7076320550302393
21     1          3.0763820352980251    -0.0344630095281563     5.1118132536581546
22     1          3.2092646828710922     1.6364239634686317     7.7401489586854568
23     1          3.0210123109928175    -0.0121274894288955    10.0720483689612355
24     1          3.0131937531758135     1.5625961008085458    12.8209046941612357
25     1          1.4799758786739019     2.7778151976136432    -0.0761450978182334
26     1          1.5979925714631622     4.3758340373296107     2.6494947826616571
27     1          1.3577994204226072     2.6802605356075224     4.9449779511828549
28     1          1.5960562259706861     4.3896051688625848     7.7816903241926516
29     1          1.5120184563364629     2.5788097288193019    10.2610784687529115
30     1          1.4432528612526376     4.2835433455552163    12.9672291819553287
31     1         -0.0585857089700369     5.3916686519784678     0.0246668275356966
32     1         -0.0305931329988615     7.1696268997118420     2.5127375677998653
33     1         -0.0616074961944874     5.3419888188611813     5.0798082020710309
34     1         -0.0354236770593073     7.0531863020908752     7.7206841833570188
35     1         -0.0336909105260691     5.2534573016935466    10.3012642047849940
36     1         -0.3115039521907993     7.1178859469012554    12.7574011930053661
37     1          6.2295367920259439     0.0284766623442944     0.0856776591307582
38     1          6.2752913976526674     1.8458466708038925     2.7716524778752345
39     1          6.3262405502715628    -0.0701259153183654     5.2079832034807030
40     1          6.2449590708780836     1.7663486181454893     7.5485792817386770
41     1          6.1154350070565000    -0.0711972847720514    10.1995741692658726
42     1          6.0858907278660634     1.6214867091414966    12.7140679573961233
43     1          4.7373921452401664     2.7761105756369817     0.0709252207251434
44     1          4.7127206269450408     4.4839006912171255     2.5776558019996569
45     1          4.7008839646007701     2.5723392952623207     5.3092051012087671
46     1          4.4610670124664571     4.4643571111302727     7.8654100603375579
47     1          4.5933389231618111     2.5690670214843379    10.3540099182653673
48     1          4.4872686564874700     4.4024662930662473    12.9922496927520061
49     1          3.2066781981216947     5.3219330078446312     0.0928141805267207
50     1          3.1083186017974804     7.2262002728866443     2.6401779962828873
51     1          3.1108441066742953     5.4268343372691552     4.9870062175188261
52     1          3.0799873529954986     7.1518817567902380     7.5192761075829129
53     1          2.8542145345929533     5.3799680216576524    10.2844037390917844
54     1          3.0532003021976917     6.9910853380044102    12.6761731882693809
55     1          1.4569686418243442     0.9929005536463981     1.3621411873505040
ITEM: TIMESTEP energy, energy_weight, force_weight, nsims
3        -105801.4194113741687033    1    1   100
ITEM: NUMBER OF ATOMS
55        
ITEM: BOX BOUNDS xy xz yz pp pp pp
   -4.8140232057352872      9.3815188588964986     -4.7331169870961656
   -0.1409854654114964      8.1000315273278165     -0.0809062186391219
    0.0000000000000000     15.4517837289511863     -0.1409854654114964
ITEM: ATOMS id type x y z
1      1         -0.0225663054631896     0.0253601217793690    -0.1966685324465909
2      1         -0.1117939313301543     1.8652260743107150     2.5047473281877433
3      1          0.0287534171506319    -0.1563777234032881     5.2589295416439406
4      1          0.0053990641032949     1.7055113446493175     7.5140609212492535
5      1         -0.0734150758302946    -0.1442005119244404    10.3503858375301778
6      1         -0.1341266369737574     1.6134073451002149    12.9361650967097521
7      1         -1.4953765800326666     2.7701992806039915    -0.1163148852682565
8      1         -1.6305595760299354     4.4688152088920203     2.3768547104957225
9      1         -1.4473113063109961     2.5900168912481396     5.0083585544416733
10     1         -1.6558324496839167     4.4631797305134802     7.6755290567853791
11     1         -1.6335156926223737     2.5216744026648503    10.4682486734101499
12     1         -1.7435646614447733     4.3473414264032559    12.7149104177896533
13     1         -3.0419875108575383     5.3466326706963345     0.0943002131139700
14     1         -3.1236555088280040     7.1983953272926477     2.5884492394468182
15     1         -3.1799427456776113     5.3098533641619170     5.3371094909026695
16     1         -3.2385012482429576     7.1144466820875838     7.7516431955913774
17     1         -3.1442132311035040     5.2701592197180398    10.2058691684201932
18     1         -3.3147589242874975     7.1531445092286461    13.0018404194814572
19     1          3.0934610903806457     0.1095836454869982     0.1055017466314924
20     1          3.1032563342212196     1.7618267260555014     2.5509653808460966
21     1          3.1072875728748874    -0.0451025900660308     5.2582005976286039
22     1          3.0404189209043309     1.7916027287617526     7.7933449850710579
23     1          2.9919277262264670    -0.0036053176974739    10.2068598568116915
24     1          3.0032737351344161     1.6541691063902346    12.8972458657236224
25     1          1.5833442679168812     2.7287611118042459    -0.0968491717879321
26     1          1.5692551028945905     4.3803606201790277     2.4776985330137729
27     1          1.5408009561955573     2.5711863065945626     5.2901296589129725
28     1          1.6424731668288481     4.3594707921359239     7.6652947578622088
29     1          1.5224816643197900     2.6443865456429880    10.4581541591179779
30     1          1.4726789333054522     4.4034738681916918    12.7817499870517448
31     1          0.0337387562722495     5.3759217725738102    -0.1920471962566985
32     1         -0.1746266538876135     7.1598457281495564     2.6600949608203242
33     1          0.0634837999662667     5.3467302384924675     5.2067120076753231
34     1         -0.0717780007894171     7.2017323335507566     7.6082513705925736
35     1          0.0669380752101124     5.2317015594597649    10.2171054135574906
36     1         -0.2235944297235097     7.0735057337873588    12.9951795410916393
37     1          6.0916781868501166     0.0730923515815485     0.1385997451656792
38     1          6.2693594632781879     1.7714831234169635     2.4104780740860074
39     1          6.2897107921387914    -0.1434368562893263     5.3456579308868957
40     1          6.3260144556670630     1.6620739741807409     7.8216509037721211
41     1          6.2507202616093309    -0.0028529198849904    10.1233127406137875
42     1          6.2952346304429101     1.6261512003181400    12.7618470947925964
43     1          4.6892546338232828     2.7588176219243783     0.0461261137735364
44     1          4.8202712972953154     4.3919796312857722     2.6867215876456445
45     1          4.7635618920970577     2.6513326222061151     4.9911340858167401
46     1          4.7275359215270099     4.4149605998825248     7.9136695314996075
47     1          4.6607789096308734     2.7124335163822226    10.3584530055969406
48     1          4.6018282595772257     4.4140064994145751    12.8173903771966931
49     1          3.1498618436084458     5.3618007103873984    -0.1581133043921839
50     1          3.0804189028630082     7.2463836725596744     2.6324748311478476
51     1          3.1100738839759794     5.2529253695742470     4.9669879325777124
52     1          3.1136079021301262     7.0961264520599308     7.5932756520381171
53     1          3.1745830839535238     5.2660951457483662    10.2894997801359374
54     1          3.1012383695146708     7.1125647494044895    12.8716793505293570
55     1          1.5761993031539456     0.8741492879304863     1.1367811557777501
ITEM: TIMESTEP energy, energy_weight, force_weight, nsims
4        -105802.1733006549766287    1    1   100
ITEM: NUMBER OF ATOMS
55        
ITEM: BOX BOUNDS xy xz yz pp pp pp
   -4.7729884422464757      9.3815188588964986     -4.7189415121003728
   -0.0939934374472842      8.1082966454425041     -0.0540469301461033
    0.0000000000000000     15.4833525399113707     -0.0939934374472842
ITEM: ATOMS id type x y z
1      1         -0.0985847527768280     0.0829148018268132     0.0511255251734424
2      1         -0.0201918430400029     1.7584202965578359     2.7792862197707184
3      1          0.0615999909794003     0.0047695641878630     5.0007088639641291
4      1         -0.1052005998761218     1.7504084794523385     7.7041802153804495
5      1          0.1405379669619272    -0.1747307887469473    10.3183939200694521
6      1         -0.1174735028473302     1.7113222574305178    13.0569934307010254
7      1         -1.4393417060403635     2.5928604296142708     0.1583234504146232
8      1         -1.4549544297253392     4.3822941512158469     2.5676541647441882
9      1         -1.6744904143904902     2.6434305688712665     5.1178258690948226
10     1         -1.6068177662537262     4.3972436015174985     7.8141475649887751
11     1         -1.6926089417626773     2.6938215211180574    10.3714192028118219
12     1         -1.7655690139283149     4.4748700411635518    12.7319838439609576
13     1         -3.0673673338265108     5.4779926977586033     0.0434833399109853
14     1         -3.0602476991644942     7.1147393854759811     2.5029723448196397
15     1         -3.1289729537172271     5.4707708045410248     5.0585468658811132
16     1         -3.2452484366062757     7.2191200406038361     7.7711633218810841
17     1         -3.0925679697852790     5.2668400383457623    10.4672148300319012
18     1         -3.2963842814504631     7.1765617184523371    12.9403736460698511
19     1          3.1333766386695925     0.0952636951007786    -0.1788014297798225
20     1          2.9720679889540684     1.8291522579944861     2.7706158200413267
21     1          3.0140202649872823    -0.0045125105711292     5.0376317077370887
22     1          3.0072383650041856     1.7437541681257227     7.8859283802338505
23     1          3.0594840435293804     0.0436709702881632    10.3368595636394200
24     1          3.1134718701066721     1.8053916851805589    13.0295159001152019
25     1          1.6114315972285314     2.7182575632898254    -0.1752186277276099
26     1          1.5168274229035335     4.5913050098732020     2.6278441134390960
27     1          1.5696040953961414     2.7074040841219680     5.1828482381539480
28     1          1.4876311980627615     4.3894241055486081     7.5704363443761338
29     1          1.5608098596178119     2.7214829294735137    10.2901358471145716
30     1          1.6008830174235882     4.3811542966744907    12.6878925816279153
31     1         -0.2084432767663919     5.5137569239524877    -0.1000098054914944
32     1         -0.0261350352371139     7.2846546405926569     2.4653017939936266
33     1         -0.0068888492980877     5.2908342109792752     5.0997974043036809
34     1         -0.0300293037154418     7.1422103489986029     7.5734384304109810
35     1          0.0849853030389716     5.2455402379285241    10.3591378564736409
36     1         -0.0166718971641450     7.0247171449616674    12.8878727902316985
37     1          6.4137382240609471    -0.1128990742517323     0.1506549968993612
38     1          6.1714623758337162     1.6916069955485469     2.7496565687586654
39     1          6.3215966984364087     0.0346112375261269     5.0592523560993019
40     1          6.1467204961471484     1.6858120313494065     7.5742433647290737
41     1          6.1764889936383129    -0.0872124756160736    10.1639253357539516
42     1          6.0287919896351623     1.8037011354821857    12.7742109984967342
43     1          4.6575938839782784     2.6114170739171683    -0.0149166149856454
44     1          4.5926831549935736     4.5684882178564798     2.5388285098983423
45     1          4.6404078795806658     2.5792656706358441     5.1324713581854455
46     1          4.6331916152744039     4.5468666313423807     7.6946992524216471
47     1          4.6386497829465085     2.6638813418317748    10.3560325737313459
48     1          4.4831492315565278     4.5390687128668672    12.8771900547070715
49     1          3.0362685369611553     5.3459271804781459    -0.0353082843773429
50     1          3.1248422709636547     7.1832741951958781     2.6703874251604196
51     1          3.0413880318024553     5.4265219326911538     5.3194290804611928
52     1          3.1078504640064213     7.1805582454862273     7.5300892462196778
53     1          3.1659811693118018     5.2994811569115212    10.3613481423167979
54     1          3.0875019496014744     7.0646796008449098    12.6872086689031018
55     1          1.5338792715814635     0.8025091954682949     1.0853694942791114
ITEM: TIMESTEP energy, energy_weight, force_weight, nsims
5        -105799.8109211225237232    1    1   100
ITEM: NUMBER OF ATOMS
55        
ITEM: BOX BOUNDS xy xz yz pp pp pp
   -4.7318317190124946      9.3815188588964986     -4.7047566555857205
   -0.0469920279642113      8.1165336190006148     -0.0270750634267739
    0.0000000000000000     15.5147243389755189     -0.0469920279642113
ITEM: ATOMS id type x y z
1      1          0.0771901990191145     0.0203438236455171     0.0530900152224953
2      1         -0.1791194632691391     1.8926135423154913     2.4927690049087046
3      1         -0.1302023476350810    -0.0014419394486124     5.1913469560882222
4      1         -0.0014757129165044     1.8033793493853256     7.9467187461357272
5      1         -0.0153369070305240     0.0406369870891961    10.4681126413866963
6      1         -0.0394868128770954     1.8512166521987248    13.0685983695294787
7      1         -1.4485430997371693     2.6208586344967619    -0.0875136223714442
8      1         -1.4886078141759727     4.4265345796987452     2.4895408242693580
9      1         -1.5915812414749921     2.6740724857681948     5.2745863584675536
10     1         -1.6790798534162625     4.4614479021321287     7.9141714427585583
11     1         -1.6222381688020944     2.7063392817314833    10.5271083227308679
12     1         -1.5496420995681814     4.5088058093318377    12.8677672571651946
13     1         -3.0189258611985990     5.3485849647708710    -0.1938259322323452
14     1         -3.2379908936170336     7.2598761729825387     2.6563498584918528
15     1         -3.1776058093298603     5.3081825156531472     5.2093529052341028
16     1         -3.1669155685901478     7.2806562372549957     7.6546748785139380
17     1         -3.0503361244900704     5.2677875717505112    10.3815972126218394
18     1         -3.1883673496129004     7.1043756215925580    13.0348042622959621
19     1          2.9827948176173309     0.0847376309410967    -0.0831240096973665
20     1          3.0118803405355679     1.8145048926000911     2.4146594170414182
21     1          3.0056050425708523     0.0943002131139700     5.3311175148074925
22     1          2.9481479303195401     1.8943219168996965     7.8325747443314198
23     1          3.1478194869528640     0.0309318058296676    10.1691198827461218
24     1          3.1717311022204195     1.6921698866800805    12.9007132750938691
25     1          1.6714301629387180     2.6685008017178955     0.1925021999213549
26     1          1.6072371201467188     4.5728140362023169     2.4587872672980091
27     1          1.5303377482122300     2.6502959643722073     5.3334478840920418
28     1          1.6163709669077404     4.3984782093993298     7.9408365338111997
29     1          1.5673243863134296     2.6223821931594467    10.1846481727613671
30     1          1.5862469098518239     4.5230253774662676    12.9036919073315683
31     1          0.1843036905905653     5.3017505463234871     0.0564729909230134
32     1          0.0607003033208321     7.1411164638996549     2.7178766736241537
33     1         -0.0512465467667221     5.3656734013723506     5.1454535039823872
34     1         -0.0215090082877920     7.2186547172684339     7.5802550420138539
35     1          0.0377362214580253     5.4250462197746492    10.4818143496801142
36     1         -0.1648267192876103     7.1857584213897141    13.0541133044113433
37     1          6.3402002503335995     0.0412730540678293     0.0483570389581820
38     1          6.1049839950476894     1.8885616643203340     2.5600804645694009
39     1          6.1651045205030419    -0.0100804420138843     5.2248286587437374
40     1          6.2386650098756498     1.7823863246347729     7.9025824525121635
41     1          6.2434326977597401    -0.1195121068953684    10.1372921418654300
42     1          6.1703759959498559     1.7046125951426352    13.1325446783754902
43     1          4.8488070632084206     2.6439718825094247    -0.0164598748379339
44     1          4.5804515307053446     4.5872156058026086     2.7560819710251239
45     1          4.6152851102284274     2.6235192332451449     5.2008438676290822
46     1          4.6550346056335714     4.4434034887589267     7.7088221909118300
47     1          4.7118988058930009     2.6207760771308037    10.1433113243652979
48     1          4.6071081783910133     4.5085900343980834    12.8619666640547408
49     1          3.0250923335445519     5.4014610813633839    -0.0419109973502342
50     1          3.2130144759589929     7.2281882167328444     2.6718715814438974
51     1          3.2219428674570048     5.3201617770840723     5.0535634030632668
52     1          3.0868039645983729     7.2868076991707733     7.7060077352541612
53     1          3.0320843795500871     5.3494377448351447    10.4099800597775438
54     1          3.1329038101191045     7.1096039420526216    12.7828879652893299
55     1          1.4756866482516144     0.8312935716311611     1.4555707955143689
ITEM: TIMESTEP energy, energy_weight, force_weight, nsims
6        -105802.6805499229667475    1    1   100
ITEM: NUMBER OF ATOMS
55        
ITEM: BOX BOUNDS xy xz yz pp pp pp
   -4.6905811805899322      9.3815188588965004     -4.6905811805899322
    0.0000000000000000      8.1247330664832909      0.0000000000000010
    0.0000000000000000     15.5459085076624941      0.0000000000000016
ITEM: ATOMS id type x y z
1      1          0.0212998004172386    -0.0246987246998168    -0.1868460822013263
2      1         -0.0720678897221570     1.8507072357246865     2.5238040074458197
3      1          0.1401880363084904    -0.0475408468174580     5.1552994080247982
4      1          0.0000328353160061     1.7495275548314879     7.6565455533744018
5      1          0.0561821638383876     0.0608701088121782    10.5594998928949799
6      1          0.0348664148390888     1.9186341230225268    13.1482746710462024
7      1         -1.4938286294209486     2.7141644066116886    -0.0441625618763694
8      1         -1.5371581124226481     4.4643655544972454     2.4036192456482683
9      1         -1.5569690657969797     2.8213285583849776     5.2217280667608721
10     1         -1.4440521666594157     4.5133821142312076     7.5766018785702007
11     1         -1.5151265535344154     2.8201558685276149    10.5015502509035734
12     1         -1.4217438529648454     4.4430685685356650    13.0083108530384379
13     1         -3.1360381755698614     5.4125172013385932     0.0341177696341489
14     1         -3.1022937903862968     7.1189451203804239     2.7811231211632910
15     1         -3.3054740350728480     5.5238354896626021     5.2773257619743505
16     1         -3.2915143350108100     7.3187095540504510     7.7968011366186758
17     1         -3.1726401713978460     5.3509350352450253    10.3926073631546405
18     1         -3.1774922929516678     7.1304872030325246    12.8600115555245456
19     1          3.1512221638429856    -0.0902295720810947    -0.1265782668998892
20     1          3.1581963849626891     1.7461783525988619     2.7831204465283492
21     1          3.2293711540894794    -0.0173192219654088     5.1865408039768095
22     1          3.2712887185029147     1.7598688030696497     7.7871503681685290
23     1          3.2572004916325095    -0.0558266042736354    10.2204846366504665
24     1          3.0112273868229886     1.8242626103652293    12.8366740892111544
25     1          1.5647754276394676     2.7723044934359282     0.0806791858827381
26     1          1.4588796572159013     4.5414591238721131     2.4750914089228857
27     1          1.4442200958469897     2.7076808389283054     5.2758791317663096
28     1          1.5503560331533435     4.5175193640479812     7.6694066775780634
29     1          1.6836749213533497     2.7195540891961243    10.1848517517206041
30     1          1.6435342166117894     4.4351055353282325    12.8218034436679176
31     1          0.0549400507414697     5.3503186694559952     0.1717258882564427
32     1          0.1361971381859158     7.1439609404176725     2.5946119591852268
33     1         -0.0383225663867063     5.5255504313100072     5.2687857653570971
34     1          0.0215868748943208     7.2592166522067583     7.6364540925861890
35     1         -0.0973623408695138     5.4741509657858849    10.5529497164276975
36     1         -0.0595182319446112     7.1613083069396577    12.9283437244370898
37     1          6.1206098528590678     0.0868090703051411    -0.1216585984102839
38     1          6.1795970908362650     1.8969956497744822     2.7875569667967217
39     1          6.2835415053371806    -0.1005895833569742     5.1311082234952474
40     1          6.1666308936213836     1.7608613677649207     7.7872272966231728
41     1          6.3948250820414119    -0.0764612550037782    10.1842344477796907
42     1          6.3232656706414065     1.8038812606442767    13.0636843299511867
43     1          4.5966665479010613     2.6741822495388439    -0.2042159643685731
44     1          4.7863364672789146     4.5414459897457116     2.3797301460259743
45     1          4.6285712172363969     2.6245146123960734     5.2319567367727267
46     1          4.7394101099467161     4.4083100411634533     7.7118327203136507
47     1          4.6655100095914159     2.6012606416005268    10.3083725816243792
48     1          4.7225552731648213     4.5086913548017602    12.9053308586762174
49     1          3.2706367029422214     5.3553865659435704     0.1755976410895093
50     1          3.1679053188297615     7.1492380447758013     2.4354291616431287
51     1          2.9803302926130990     5.4931532322345795     4.9802646580668224
52     1          3.0073631392050086     7.2107657980599873     7.7783317404411658
53     1          2.9847433590843235     5.5204881637337468    10.4415394892188722
54     1          3.0111382623938292     7.3251143169754194    13.1044535964562936
55     1          1.5015590009606792     0.8984408547118269     1.0913126864762224
ITEM: TIMESTEP energy, energy_weight, force_weight, nsims
7        -105799.6812042610981734    1    1   100