ITEM: TIMESTEP energy, energy_weight, force_weight, nsims
1        -105798.0031067139061633    1    1   100
ITEM: NUMBER OF ATOMS
55        
ITEM: BOX BOUNDS xy xz yz pp pp pp
   -4.8957831425905702      9.3815188588964986     -4.7614773186066097
   -0.2349882843776386      8.0833887128721340     -0.1343058239839601
    0.0000000000000000     15.3880738343804193     -0.2349882843776386
ITEM: ATOMS id type x y z
1      1          0.0982929875403163    -0.0557412324520194    -0.1458985668379007
2      1          0.0119042092800538     1.7909141252775096     2.5682489530398422
3      1         -0.2272926244576867     0.0292572047133546     5.3083710841822116
4      1         -0.1091389614930865     1.5925494142212306     7.5398966860347674
5      1         -0.1524797023174166    -0.1652845374079244    10.2149786232321791
6      1         -0.0148809652139816     1.5930222427717189    12.9044837075232586
7      1         -1.5505689936314404     2.6021734633854976    -0.0022252962733302
8      1         -1.7048499475697652     4.4202208175067073     2.6540448193082224
9      1         -1.7424060438656994     2.6414726458854152     4.9898544466443866
10     1         -1.6363217049130698     4.4668919975259467     7.8245263393023725
11     1         -1.6247383435779903     2.4729524226230568    10.2765514078068882
12     1         -1.7939359125019605     4.2258770254333511    12.8638073180548549
13     1         -3.0967849625123529     5.3167272030298305     0.1506540587474753
14     1         -3.1081225280533293     7.1046861498667884     2.3556449726595292
15     1         -3.3363157783214699     5.3890924868998153     5.0330544646858337
16     1         -3.2429133765622966     6.9598889733429212     7.5429588137903130
17     1         -3.2802696465065369     5.2814217331081457    10.3906625742951935
18     1         -3.1130853515296857     6.8823966894165514    12.9390283362654888
19     1          2.9569431042497563     0.0939699836501368     0.0294148142301841
20     1          3.0879644584812183     1.8535920527737975     2.4098082336394824
21     1          3.0157211343563999     0.0286014365451178     5.0323067576327789
22     1          3.0534123245239027     1.6071930270080819     7.5161924023339948
23     1          3.0142491740474391    -0.2021689169535619    10.1338256706470666
24     1          2.9343580357488483     1.5318097085211910    12.8295488256378221
25     1          1.5215735332942490     2.7742220758906866     0.1850016755936672
26     1          1.5750613249163614     4.3566019236688733     2.5906154321513370
27     1          1.3966539189286127     2.6089516107610500     5.1646996899214122
28     1          1.4264317979386361     4.4334084185666587     7.8318110886963046
29     1          1.5059486136347568     2.4940852320046072    10.3910397113533186
30     1          1.3005158662701850     4.3650396617305640    12.7119505485896696
31     1         -0.1074249579975661     5.4829301911340407    -0.0727208434347362
32     1         -0.1555483971361616     7.0851800958553701     2.5748225833042704
33     1         -0.1381728860575994     5.3488241935017733     5.2120050606155122
34     1         -0.0334310424536777     6.9961222754797516     7.7736494243786911
35     1         -0.1995008129900918     5.2181640277463774    10.2237268895681002
36     1         -0.1140295472742293     6.9149543124644657    12.9467624604127618
37     1          6.2587620995751774    -0.0713548942888809    -0.0900522613746616
38     1          6.2424495145833276     1.8047790719990731     2.4603502283399017
39     1          6.2781021007027933    -0.1699996887864058     4.9851824502526556
40     1          6.1308122546181174     1.6247392817298763     7.5374734397135157
41     1          6.2065858442895392    -0.2257146529856203    10.0752493431958889
42     1          6.2171963421189504     1.5112866978654691    12.9477756644495230
43     1          4.7411541343025840     2.7797871928777833    -0.1028139414784185
44     1          4.6045723538434533     4.3773163173093161     2.5444583593655667
45     1          4.7206602063553236     2.6638775892242319     5.2099580132005006
46     1          4.5290651993076247     4.3387338828502191     7.8764952630212299
47     1          4.6304719129572094     2.4433284005223199    10.1739419834395939
48     1          4.6754262750252691     4.2888260788246617    12.7087683373927316
49     1          2.9381978914177949     5.4269928849378708     0.0968529243954757
50     1          3.0451078040300072     7.1459366882893560     2.6188932062958230
51     1          3.0783277623093594     5.3280657067226924     4.9823370355827530
52     1          3.0748387754457367     6.9600259435182616     7.6054491109094213
53     1          3.0653662558539083     5.1727809302664660    10.4545479032686170
54     1          3.0874034436534563     6.9560069008391103    12.6984374088253151
55     1          0.0283190528274650     0.0616215684727758     1.9487103343322634
ITEM: TIMESTEP energy, energy_weight, force_weight, nsims
2        -105796.6204480564920232    1    1   100
ITEM: NUMBER OF ATOMS
55        
ITEM: BOX BOUNDS xy xz yz pp pp pp
   -4.8549641540355140      9.3815188588964986     -4.7473018436108179
   -0.1879868748945677      8.0917288831376943     -0.1076623104246963
    0.0000000000000000     15.4200272876138200     -0.1879868748945677
ITEM: ATOMS id type x y z
1      1          0.0473016180865561     0.0174909037605266     0.1240574527825038
2      1          0.0275460156734919     1.8782691999802388     2.6836134904476925
3      1         -0.0996476788635410    -0.1114618255625493     5.3304017049185575
4      1         -0.1216970626376054     1.6485505147456414     7.6422612527598446
5      1         -0.0537279585049003    -0.1435409911486600    10.2905270564509870
6      1         -0.1739389885552565     1.6063777730192439    13.0198060280962444
7      1         -1.7358333517531566     2.7825594317005873     0.1088199898518841
8      1         -1.4934514923628208     4.3976713987774643     2.3605712082123356
9      1         -1.6334059288517249     2.5781952393340442     5.0710646264945387
10     1         -1.6855521632770152     4.5097261363318957     7.8158456199022357
11     1         -1.6432424513752777     2.6356054439910612    10.2345944410142451
12     1         -1.5909414218888156     4.3145924203706203    12.7140970401045870
13     1         -3.1813011896083796     5.4328732209586263     0.0566709409709361
14     1         -3.0493717043513762     7.0981040762353862     2.5316141218958514
15     1         -3.3529689124478970     5.4256391317665322     5.2758509872097328
16     1         -3.1236029723223946     7.0848329796575911     7.6584753318036762
17     1         -3.1757773513042613     5.3548199222044932    10.3316378102425581
18     1         -3.1843736370346685     7.1060502227088715    12.7758818470055058
19     1          3.1554719918860656    -0.0549513085641004     0.1593920054126515
20     1          3.2537837424640998     1.6847678683004115     2.6525081265191348
21     1          3.1339442205605561    -0.1672274499636019     5.0626859920016578
22     1          2.9790956847312677     1.7848893138663267     7.8916173332698856
23     1          3.1066074127576178    -0.0545310165192218    10.4851128917109051
24     1          2.9363900727336851     1.7408299486974048    13.0584747725288430
25     1          1.6173888617039305     2.6521459998911809    -0.0829185544343567
26     1          1.4464294435382596     4.4202433331519693     2.5870410734660969
27     1          1.5325667970931041     2.6770914585369874     4.9254109172988549
28     1          1.5352245813858292     4.3261185544406606     7.8339979207423145
29     1          1.5574841111823330     2.5780620217662475    10.3757684749548051
30     1          1.3332508000245327     4.3125979094612186    12.8875162925150590
31     1         -0.0402007464622574     5.4193788442319901    -0.0200811411174680
32     1         -0.0977394779276414     7.0586257067252642     2.4577402897933562
33     1         -0.0510561019338865     5.3659435891154876     5.2900086373196924
34     1         -0.1247179117101701     7.0408815019555480     7.6579021210013982
35     1         -0.1895348255062860     5.2262058657122239    10.1235078762060535
36     1         -0.2184890071604982     6.9462745131748909    12.7835437334575666
37     1          6.2437019473509903    -0.0147477476461853     0.0703829689350992
38     1          6.2639557084154633     1.7650108135562108     2.4479084580292332
39     1          6.1082975475086521    -0.0645542312680668     4.9332519907611205
40     1          6.3239477070624481     1.6255883091866064     7.5905202999492598
41     1          6.1353275796449047    -0.1216435879801097    10.1264902610512966
42     1          6.0966550826047614     1.5725986762159012    12.9659964503772720
43     1          4.7428559418235876     2.7664879517434122     0.0638130912782140
44     1          4.6589054203147526     4.4444007442136275     2.4602892484673187
45     1          4.7149656244079745     2.7026157568963876     5.2157473484883266
46     1          4.5553888030738028     4.4294475413044321     7.7973715329652959
47     1          4.6450395354413034     2.6059448339667735    10.0692742538346582
48     1          4.5071546620126721     4.2858390032199889    12.9675838033681963
49     1          3.0051096983751022     5.3735942177449179     0.0162469143598370
50     1          3.1589084422440799     7.1953491481191634     2.6755041055460622
51     1          2.9934587901042389     5.2786729480824892     5.0826170288173840
52     1          3.1041663415505325     6.9938041021697188     7.6083630106669951
53     1          3.0280991103388284     5.1825808648664697    10.1495153227866872
54     1          3.0113596662388993     6.9261361447923830    12.9394786491707130
55     1         -0.0845603202346636    -0.0958641123077480     2.0202275288974030
ITEM: TIMESTEP energy, energy_weight, force_weight, nsims
3        -105795.4270936397078913    1    1   100
ITEM: NUMBER OF ATOMS
55        
ITEM: BOX BOUNDS xy xz yz pp pp pp
   -4.8140232057352872      9.3815188588964986     -4.7331169870961656
   -0.1409854654114964      8.1000315273278165     -0.0809062186391219
    0.0000000000000000     15.4517837289511863     -0.1409854654114964
ITEM: ATOMS id type x y z
1      1         -0.0464985600722346    -0.0043220657382936     0.1050382995998629
2      1         -0.1301207284210086     1.8246228606894108     2.4989345391027711
3      1          0.0120740147713998     0.0190407306760163     5.2484597665974126
4      1          0.0586907819812565     1.7266122568667475     7.6998121801997454
5      1         -0.0556230253143973    -0.0372127327056989    10.3727701415275035
6      1         -0.0319403191069990     1.7698347905534553    12.6672860754543493
7      1         -1.4845812662817344     2.7292761571895996    -0.2065735400578138
8      1         -1.5696425596234627     4.5576825844348026     2.4731222281144030
9      1         -1.6122337170909671     2.6918842374736949     5.1945488684747634
10     1         -1.5326596741298069     4.3829921362189488     7.5384725714719876
11     1         -1.4603328544871446     2.5296402503279394    10.3728423792227176
12     1         -1.6555087872832850     4.3865824434862493    12.6822458454267455
13     1         -3.0576884208197876     5.4030606303288256     0.0309045994249769
14     1         -3.2680746101418570     7.1371368235997110     2.6139472695534129
15     1         -3.0919075108576122     5.2824227411703903     4.9658790370485901
16     1         -3.1044046321295484     7.1728381936172410     7.5359742729998640
17     1         -3.0452776095213534     5.2397724801340742    10.3616980729702330
18     1         -3.4180316220381166     7.1827872943671016    12.6883260077991959
19     1          2.9960987495111318     0.0047123369228237    -0.0638487410498778
20     1          2.9962798128251085     1.7884824355892839     2.4306023701902264
21     1          3.0618106602063868    -0.0989412504934660     5.1430058657121007
22     1          3.1273921677895027     1.6844291954696053     7.8017067328299934
23     1          2.8841387652971755     0.0157027862660210    10.1986050583677503
24     1          3.1722789829217786     1.5736156328602053    13.0173142966873208
25     1          1.6390001285472846     2.7424206032627989    -0.2137597835037285
26     1          1.5574081208795758     4.5397629452624253     2.7465906883955786
27     1          1.4741340068804671     2.7434291165401303     5.2332598297422281
28     1          1.6526267846898319     4.3179641382485086     7.9259293003444125
29     1          1.4265509432281440     2.6289079776776951    10.2537383683977090
30     1          1.5961706805007647     4.3175898156460377    12.7732418875986120
31     1         -0.0389952212888892     5.4617120099308742    -0.0144935084851092
32     1          0.0413837559903642     7.2393888120984817     2.3800106534398555
33     1         -0.0809878378531958     5.2981452286260131     5.3051541613654951
34     1         -0.2243843536114288     7.2140906083435814     7.7123796628631238
35     1         -0.1741782172861583     5.3201261273124087    10.1581313097066968
36     1         -0.1041020240177450     7.0112724902849841    12.8395514010451794
37     1          6.2472031301891313    -0.0644876224841686     0.1125341331681212
38     1          6.1296602041022448     1.8775168021677553     2.5176816282385039
39     1          6.1444482922795238    -0.0198109533743317     5.2003879258125405
40     1          6.0436091605209032     1.8215691763008401     7.6957302813442396
41     1          6.1634787032847953     0.0117287748773924    10.2132786920149474
42     1          6.0622127124180949     1.7127923414357071    12.9834817252264827
43     1          4.6891345503818895     2.6190161041928746     0.0579984258894699
44     1          4.7692367728548053     4.4052113254843590     2.4912107346262413
45     1          4.6214346958404340     2.7659241224599920     5.0347844167634141
46     1          4.5720644528454910     4.3812481118630799     7.6777740542483119
47     1          4.4965178959304550     2.6958357332170628    10.1791374685836526
48     1          4.6744824942280649     4.4487837898245033    12.7512065761028364
49     1          3.1819241224606105     5.2935942538275631    -0.0702628854937053
50     1          3.0463161436590336     7.2005830974905409     2.7323701821092636
51     1          2.9511518926581588     5.4392113750996964     5.3450987923629043
52     1          3.1698078908543459     7.0785051451872656     7.6687893736371473
53     1          3.0417210757219455     5.3053427298945586    10.3168440931539642
54     1          3.0388221863945466     6.9967498990914114    12.6884648542783083
55     1          0.1624954118511745    -0.0966671703220695     2.0288210001721523
ITEM: TIMESTEP energy, energy_weight, force_weight, nsims
4        -105799.2260859055531910    1    1   100
ITEM: NUMBER OF ATOMS
55        
ITEM: BOX BOUNDS xy xz yz pp pp pp
   -4.7729884422464757      9.3815188588964986     -4.7189415121003728
   -0.0939934374472842      8.1082966454425041     -0.0540469301461033
    0.0000000000000000     15.4833525399113707     -0.0939934374472842
ITEM: ATOMS id type x y z
1      1          0.0241864937701211     0.0123113671985299    -0.1524177842929479
2      1         -0.0440180864859424     1.8311261295623982     2.7794654067809232
3      1         -0.1346032181317893     0.0136585533066674     5.3541922985928334
4      1          0.0332452883802715     1.7275794914610996     7.6518576084006105
5      1         -0.0354874713875478     0.0022768946270542    10.3291610892638097
6      1          0.0264718317641482     1.6157827456752878    13.0308884163242595
7      1         -1.6669204668232465     2.6775061216705502     0.1702088966569592
8      1         -1.6533763680466578     4.4823546169091797     2.4313482009395089
9      1         -1.7112181225711842     2.7392974956346725     5.0109806889627357
10     1         -1.6981618627752577     4.4922089643185643     7.7146434233637757
11     1         -1.6957367401502330     2.6705234571838741    10.3610751401180039
12     1         -1.5423170096431551     4.3601762823541126    13.0731530969354726
13     1         -3.0410906376546278     5.3422149134656802     0.1372262908047368
14     1         -3.1094481366680919     7.0843873575117930     2.6329636082803960
15     1         -3.1529089609338157     5.4187127563930080     5.2763228776083348
16     1         -3.2206866820817988     7.1534587901104185     7.6071846918983166
17     1         -3.2237525624448864     5.4109307864995539    10.3979595196636403
18     1         -3.2119449828090789     7.2226897085296455    12.7660790979498451
19     1          3.1379566961765062     0.0320500828776481    -0.1655096938605379
20     1          2.9274870113365923     1.8847002311580121     2.4093907560502617
21     1          3.2494447899918604    -0.1000510841744735     4.9901236962356377
22     1          3.0509384180008117     1.8247692123836097     7.6472193854767729
23     1          3.0667875559610311    -0.0465726740712199    10.1617300603409699
24     1          3.2241559677558187     1.6470982556262843    12.8161473259478882
25     1          1.4598759745187162     2.7942966499449531     0.1072213790383281
26     1          1.6550490928591988     4.3947340452227435     2.4805364424685892
27     1          1.5056061881964073     2.7120901527919865     5.3628092236647298
28     1          1.4407733258182311     4.3871040559348033     7.8793481829062193
29     1          1.6360881050934830     2.5540472097912446    10.1154153780383691
30     1          1.4059378699913767     4.3993244224004018    13.0322055815720468
31     1          0.0575875153634503     5.4562744816002580     0.2160301110675815
32     1         -0.0338757264475894     7.1985792050622823     2.7002093973090799
33     1         -0.1372262908047368     5.4348424017671091     5.0278711755162933
34     1         -0.0143321463607362     7.1134250346838499     7.9154820409431457
35     1         -0.0837619529797715     5.4533230557672496    10.3965870034545826
36     1          0.0747660145459756     7.0730272763255559    12.9880101843796716
37     1          6.1278101685832711     0.1019198827311657     0.1302773997859522
38     1          6.1384694503107493     1.8250722354427520     2.4820496814605293
39     1          6.2222745582772712    -0.0725763680443092     5.0158112330231805
40     1          6.2624903151697033     1.6430679551245024     7.9525287207650432
41     1          6.2761976523744361    -0.1523690003948816    10.2752717686345356
42     1          6.1731050797859091     1.8094960996813261    13.0261770175533211
43     1          4.5441413001138713     2.8153712939095783     0.1143682201050354
44     1          4.7043682607049648     4.4238467745456713     2.5429910898160353
45     1          4.6849025472246408     2.6779357952342879     5.3740848711812381
46     1          4.6542024649107878     4.3515058826247204     7.8979282810062648
47     1          4.5777055601353451     2.6564765089964477    10.4287187055463040
48     1          4.7482259232184205     4.3792010644480683    13.0154764571428636
49     1          3.1433097908373924     5.4626473473611066     0.1548391543104291
50     1          3.1912052590677167     7.0801750555441494     2.7329724756200040
51     1          3.1200314280928123     5.2702642927292587     5.1731102215784128
52     1          3.0122593538974667     7.2139620815352146     7.5990724925410298
53     1          2.9609236827015857     5.4227984078560576    10.1576960072316442
54     1          3.0428140226690070     7.1813294063364292    12.6971305632482707
55     1         -0.0046841923662470     0.0853305429329790     1.9654891808113995
ITEM: TIMESTEP energy, energy_weight, force_weight, nsims
5        -105795.8111486179113854    1    1   100
ITEM: NUMBER OF ATOMS
55        
ITEM: BOX BOUNDS xy xz yz pp pp pp
   -4.7318317190124946      9.3815188588964986     -4.7047566555857205
   -0.0469920279642113      8.1165336190006148     -0.0270750634267739
    0.0000000000000000     15.5147243389755189     -0.0469920279642113
ITEM: ATOMS id type x y z
1      1         -0.0000112578226307    -0.0781527428540373     0.0739291830637621
2      1         -0.1210938309749783     1.8938716039944696     2.6925268715155299
3      1         -0.0395496690534500    -0.0277674195185619     4.9597172554620670
4      1          0.0186044900490776     1.7141292078730996     7.8527553295487929
5      1         -0.1480244190113266     0.0787850572251269    10.2226977369492804
6      1          0.0911705384226421     1.7701518858908860    12.8664341433353471
7      1         -1.7019707594319700     2.7153061374568161     0.1155568585444576
8      1         -1.4486659976342209     4.4281435101830455     2.6124809381557674
9      1         -1.7061483497798362     2.7125095066849791     5.3529802063562641
10     1         -1.4152799864710659     4.3861302542772505     7.6720560185038140
11     1         -1.5532511698731990     2.5969123076094283    10.3569575914908345
12     1         -1.6683042408549340     4.4896299847842540    12.8141800214431782
13     1         -3.2902290669271412     5.5129716908240001     0.1611876281222443
14     1         -3.1652503489926933     7.2695485189260616     2.4566811163141868
15     1         -3.2641550115626097     5.3891056210262169     5.1112925793614865
16     1         -3.1626966995593020     7.2499420826628542     7.8667994632805600
17     1         -3.1740971212766329     5.4634738591725762    10.1966246197366353
18     1         -3.3163444009746512     7.2664150916271906    13.0350144083184016
19     1          3.1711128601276184    -0.0941069538254767     0.1240396278966718
20     1          3.0716152855658194     1.6961589084988835     2.6141921271956297
21     1          2.9750738275964586     0.0667654552631087     5.1759124812615651
22     1          3.0345451519467761     1.7627461149036729     7.9429051587195856
23     1          3.0164012944736696    -0.0507906049501798    10.4692412381054218
24     1          3.2276777899354481     1.6981496668007414    13.1395395388366829
25     1          1.7513907244768647     2.5965539335890186     0.0810910345606437
26     1          1.6397375159295939     4.4747161842542660     2.7795273248053927
27     1          1.5164756159463246     2.6740537227304770     5.2985636443671211
28     1          1.5815251914101411     4.5517497119084371     7.7511065727126489
29     1          1.6554027761201793     2.5782946834339482    10.2139194497530106
30     1          1.5603473507380683     4.5161712397879574    13.0790184225260546
31     1          0.1045382646446837     5.3145309894649637     0.1855007723969605
32     1          0.0083007678863516     7.1336121869644229     2.7054508518955456
33     1          0.0029589310480960     5.3921611817185591     5.1574853019189204
34     1         -0.1028336426680222     7.2642798579349055     7.5951435124429230
35     1         -0.1085103997295405     5.3486684602887147    10.2058663539645345
36     1         -0.0189487917911991     7.0690091717982906    12.9840249151684137
37     1          6.2372756069326467     0.0389436229351653    -0.0911358268028642
38     1          6.2976522478528469     1.7667726627979115     2.5267620003420301
39     1          6.1010850358099322     0.0727752562441178     5.0308254158049595
40     1          6.2049515837043199     1.8128781372299583     7.5531039882843229
41     1          6.3804816778580449    -0.0672654902182879    10.1436772036007934
42     1          6.3522104707767602     1.7078295179593508    13.0608304719143131
43     1          4.6149792727136276     2.6212732976303248    -0.1014367345099325
44     1          4.5766970468580146     4.5286026904278813     2.7093094706022098
45     1          4.6208708665570146     2.5986957343445045     5.2118577707694271
46     1          4.7260057958011235     4.4169166465646050     7.8557386525459210
47     1          4.6364920336089623     2.6310272627879199    10.4119961481803216
48     1          4.8282080622499413     4.3572895890012306    13.0737628956613001
49     1          3.0301198895010346     5.3428566093556284     0.0939587258275061
50     1          3.1976015786257119     7.2661599143142288     2.7392261960913444
51     1          3.1302797992942710     5.3433613350702371     5.3721550927519628
52     1          3.0681685155370610     7.2983601014936195     7.6623846107121789
53     1          3.0528175362282486     5.4377469200058233    10.4586457507061859
54     1          3.0490761865073206     7.1073927180575796    12.8014586818705141
55     1         -0.0188193268309464    -0.0546041923663212     2.0028201206547203
ITEM: TIMESTEP energy, energy_weight, force_weight, nsims
6        -105796.9410516372736311    1    1   100
ITEM: NUMBER OF ATOMS
55        
ITEM: BOX BOUNDS xy xz yz pp pp pp
   -4.6905811805899322      9.3815188588965004     -4.6905811805899322
    0.0000000000000000      8.1247330664832909      0.0000000000000010
    0.0000000000000000     15.5459085076624941      0.0000000000000016
ITEM: ATOMS id type x y z
1      1          0.0246705801432401     0.0683640660766647     0.0744836308283229
2      1         -0.1636896792019120     1.9031780707024948     2.5567134374509428
3      1         -0.0528864362632572     0.0979524384057384     5.2510772103590444
4      1          0.0787118813780275     1.8791482482973172     7.5659960715002184
5      1         -0.0355568946271036     0.0176128635056923    10.1696377425871329
6      1         -0.0784454462424349     1.8219669527004572    13.0849925737354020
7      1         -1.7036519276114839     2.7807975824588871     0.1161797913966884
8      1         -1.3989505147452705     4.4531274330561734     2.4664979376481364
9      1         -1.5800597981643818     2.8158975971175626     5.1008631448460520
10     1         -1.5810411050370221     4.5073357253266488     7.8499652658401571
11     1         -1.5813732108046270     2.8009528375753403    10.3830898122722903
12     1         -1.5790343981531041     4.4681350487747507    12.9181516423487857
13     1         -3.2040776410940088     5.3626825731601340     0.1935848271976716
14     1         -2.9652326143134768     7.1242822664592511     2.5783237661424110
15     1         -3.0766484704336179     5.3800487027198374     5.2155756666932085
16     1         -3.1629340519864320     7.2947050617461917     7.9276827062191408
17     1         -3.0473284095439084     5.4093190415595949    10.5736659863719122
18     1         -3.2884278153062327     7.3083101403953643    12.7684488696136036
19     1          2.9861609065839030     0.0566221570728698    -0.0418162440097594
20     1          3.0430269831471040     1.8957216395134440     2.5752588239312098
21     1          2.9942956215864518     0.0659276856290093     5.0588921057751195
22     1          3.2951008896705662     1.7217104132629741     7.8511726673172966
23     1          3.1927625911982935    -0.0627933201782519    10.4966849952233527
24     1          3.0914478164335271     1.8003463043382444    13.1107016880163201
25     1          1.5836304042420775     2.8145804318697731    -0.0135835011557962
26     1          1.7183921700425822     4.4609422382656341     2.4936058363909175
27     1          1.6406644099928531     2.6663824547595567     5.0615677149536777
28     1          1.5238288504279278     4.4664820251518123     7.5988614083667043
29     1          1.4840296329728311     2.7313081941744359    10.4902586548050074
30     1          1.6266484208176617     4.5539628122072502    12.8773082618446946
31     1          0.0557309127812747     5.4459304189064390    -0.0416755212268759
32     1         -0.1029771799065633     7.2395839476907469     2.5578880036120766
33     1         -0.1015680757739571     5.4182924643481298     5.0285550882411076
34     1         -0.0416351806957827     7.3307272797086975     7.7754469233920549
35     1         -0.0377362214580253     5.3806388002560634    10.4953002830397786
36     1         -0.1419123594747556     7.2451537554372729    13.1381623318681964
37     1          6.2017750014186968     0.0661190686137307     0.1185064080736947
38     1          6.3216492349420177     1.7335283125695260     2.5111586581759129
39     1          6.1853554671118562    -0.0381959158821112     5.3916799098010983
40     1          6.1168356678221336     1.8950236545103420     7.8575352134074006
41     1          6.1053930292699370     0.0693069087219838    10.5765432982059373
42     1          6.3381006664129798     1.7483032666204019    12.9706262299341351
43     1          4.7110676033221033     2.8100247663118934    -0.0238628313694891
44     1          4.5581751141748947     4.5910310695225220     2.6903475446846081
45     1          4.8718715273230186     2.5954910075023059     5.2074465806019745
46     1          4.7327970773030792     4.5839208163793650     7.8773302181996723
47     1          4.7735485189223539     2.7839760410482808    10.3052325872623065
48     1          4.6994073135323804     4.4478278130527826    12.8878202537260869
49     1          3.0558627772498466     5.3293838101223683     0.1647319659471354
50     1          3.2319829689397963     7.1707536201267947     2.4337104673881793
51     1          3.0216136663516733     5.4302970558799748     5.1382062806638888
52     1          3.2536824220604239     7.2132650346839977     7.8793444302986773
53     1          3.0454521057721289     5.4437595354424904    10.4982442036577019
54     1          3.2031010249807976     7.3051185476795677    13.0714006292126328
55     1         -0.0344517517055256     0.0209292304223122     2.0169833996759965
ITEM: TIMESTEP energy, energy_weight, force_weight, nsims
7        -105795.8413064640335506    1    1   100