ITEM: TIMESTEP energy, energy_weight, force_weight, nsims
1        -53866.2618403331434820    1    1   1
ITEM: NUMBER OF ATOMS
28        
ITEM: BOX BOUNDS xy xz yz pp pp pp
    0.0000000000000000      3.1909917291949035      0.0000000000000003
    0.0000000000000000      5.5269604155437584      0.0000000000000031
    0.0000000000000000     49.9999557399608818      0.0000000000000031
ITEM: ATOMS id type x y z
1      1          0.0000000000000000     0.0000070201818042    -0.0168742833631556
2      1          1.5954958645974500     2.7634862706561631    -0.0168688586772159
3      1          1.5954958645974500     0.9211416678716543     2.6013254956644181
4      1          0.0000000000000000     3.6846234711393966     2.6013302821520119
5      1          0.0000000000000000     0.0000210605454127     5.1867643199058664
6      1          1.5954958645974500     2.7635006301189442     5.1867640008066926
7      1          1.5954958645974500     0.9211432633675187     7.7732600006080244
8      1          0.0000000000000000     3.6846237902385699     7.7732625534014073
9      1          0.0000000000000000     0.0000076583801501    10.3630452746838095
10     1          1.5954958645974500     2.7634869088545089    10.3630478274771924
11     1          1.5954958645974500     0.9211397532766168    12.9539327173028553
12     1          0.0000000000000000     3.6846199610484942    12.9539308027078182
13     1          0.0000000000000000     0.0000220178429314    15.5455327083750365
14     1          1.5954958645974500     2.7635019065156361    15.5455333465733787
15     1          1.5954958645974500     0.9211451779625562    18.1372801232651000
16     1          0.0000000000000000     3.6846253857344338    18.1372782086700610
17     1          0.0000000000000000     0.0000172313553377    20.7288893682132951
18     1          1.5954958645974500     2.7634964818296965    20.7288890491141196
19     1          1.5954958645974500     0.9211477307559397    23.3198109544438417
20     1          0.0000000000000000     3.6846279385278171    23.3198087207496343
21     1          0.0000000000000000     0.0000165931569918    25.9095588939163974
22     1          1.5954958645974500     2.7634971200280423    25.9095588939163974
23     1          1.5954958645974500     0.9211419869708272    28.4960501072301362
24     1          0.0000000000000000     3.6846215565443590    28.4960513836268277
25     1          0.0000000000000000     0.0000178695536835    31.0814582979509808
26     1          1.5954958645974500     2.7634961627305237    31.0814544687609065
27     1          1.5954958645974500     0.9211525172435335    33.6995559652432206
28     1          0.0000000000000000     3.6846295340236819    33.6995537315490097
