ITEM: TIMESTEP energy, energy_weight, force_weight, nsims
1        -100035.2458403133205138    1    1   300
ITEM: NUMBER OF ATOMS
52        
ITEM: BOX BOUNDS xy xz yz pp pp pp
   -4.8957831425905702      9.3815188588964986     -4.7614773186066097
   -0.2349882843776386      8.0833887128721340     -0.1343058239839601
    0.0000000000000000     15.3880738343804193     -0.2349882843776386
ITEM: ATOMS id type x y z
1      1         -0.0289372949202663    -0.1784937159612507     5.2218978722522191
2      1         -0.1269854248183653     1.5889243953341528     7.7600574798559219
3      1         -0.0495625641315502    -0.2260017274627026    10.4534849771819047
4      1         -0.2705095292330794     1.6551597947817338    12.8047938118248528
5      1         -1.6672619541097105     2.6820946225444366     0.0488411253313011
6      1         -1.5546565213982615     4.4088644889280140     2.5374062716393335
7      1         -1.6946344116843128     2.7186009268800606     4.9275320787128516
8      1         -1.5379161391464466     4.2992648948589558     7.6654204702149169
9      1         -1.6059987596573444     2.4457263167426535    10.2847367830112759
10     1         -1.7409190731265647     4.2020808028477603    12.6917071071959420
11     1         -3.1037432350499965     5.3784838653741751     0.0622848418560998
12     1         -3.1789417376153675     7.1721664768669449     2.6810035519011470
13     1         -3.3017242419849473     5.3867320967549155     5.0491606562627878
14     1         -3.2102441134399609     7.0242931003092473     7.5016979556969998
15     1         -3.1915354885315499     5.1461983965797824    10.0719442341019008
16     1         -3.1685310661376498     6.8888361639612974    12.8841098630173931
17     1          3.0765030568913043    -0.0294026182556675     0.2099471342394730
18     1          3.1534315115342562     1.8675151649122856     2.5647290071639834
19     1          3.0348828866256965    -0.0154832587247228     4.9195352720375274
20     1          3.1447376580077164     1.6228864317552441     7.5145065433950506
21     1          2.9405976839419004    -0.0604226103626088    10.0594649377157968
22     1          2.9560359113761008     1.6987941771463475    12.6410300186239564
23     1          1.5050995861780267     2.6580601093798299     0.0165649478491535
24     1          1.4398511225144017     4.4710883509115300     2.4050461746667064
25     1          1.3729608930504693     2.6812549766065654     5.1729741895549584
26     1          1.4664242746822260     4.4085248779453217     7.5462592321248714
27     1          1.3185584033396147     2.6387576343276504    10.2996768517940698
28     1          1.5129387833365207     4.2815244426967816    12.8090830422471385
29     1         -0.0814878728083750     5.3264173738591856     0.0309121046400640
30     1         -0.2687908349781294     7.2358913818678845     2.7393903726713753
31     1          0.0784116727745428     5.2101522106408797     5.0794151164308428
32     1         -0.1410389400689923     7.1097718712401958     7.7474871827368865
33     1         -0.1396448463665603     5.1409991588281825    10.4655224040297554
34     1         -0.1527451993011233     7.0569482911532928    12.8737770581462065
35     1          6.2572132108115737    -0.0712273056323999     0.2090643333148508
36     1          6.2242972137432497     1.7714484117971854     2.5480646152149262
37     1          6.1503774121983463    -0.0007214388002491     5.0797068816673532
38     1          6.2150582939710075     1.6556785927746309     7.5505775452556225
39     1          6.0115121700489595    -0.1070168619272042    10.2620503941066943
40     1          6.2620005998852690     1.5131085888278666    12.9116502497795693
41     1          4.6739862118804290     2.7461976027553905     0.1798737373853944
42     1          4.7389485392188577     4.4334224908449471     2.4018264373943334
43     1          4.6443847054249527     2.5292227727387182     5.1757773873899984
44     1          4.5701806438586248     4.2664868061178565     7.7919443243054252
45     1          4.5281561301301974     2.4359714134331729    10.2481272819682037
46     1          4.3717971697646272     4.3665941794054834    12.6804961921595609
47     1          2.9531473417194460     5.4212682821301721    -0.1401824073971751
48     1          3.0580721249411167     7.2183197970451722     2.6344927958543960
49     1          3.1996345537624356     5.2212777538556461     5.0327824006389248
50     1          2.9600286858024467     7.0090687715050288     7.5815834650842753
51     1          2.9907803664700237     5.2450692856818071    10.2553407318188086
52     1          2.9966466302124917     6.9436110999708509    12.7349915589071188
ITEM: TIMESTEP energy, energy_weight, force_weight, nsims
2        -100035.3703637437429279    1    1   300
ITEM: NUMBER OF ATOMS
52        
ITEM: BOX BOUNDS xy xz yz pp pp pp
   -4.8549641540355140      9.3815188588964986     -4.7473018436108179
   -0.1879868748945677      8.0917288831376943     -0.1076623104246963
    0.0000000000000000     15.4200272876138200     -0.1879868748945677
ITEM: ATOMS id type x y z
1      1         -0.0662091311947761    -0.0686774088065518     5.3138123651203717
2      1         -0.0471524519366997     1.6562855770448015     7.7454288774992452
3      1          0.0025949281163708    -0.2183154490616087    10.3315224175605938
4      1         -0.1659919039298852     1.6029647764583774    12.7464895484205822
5      1         -1.6105375384812786     2.7261295957643252     0.0517700355190486
6      1         -1.6026861453482679     4.4415722162776703     2.5571750081788003
7      1         -1.6233808377991079     2.5878375644172178     5.2959649636432058
8      1         -1.7653494863870169     4.5021411783344787     7.5501084693126774
9      1         -1.6913912206147923     2.5349117257747533    10.2205409257636184
10     1         -1.8341995151405723     4.4125336009537284    12.9567368912635406
11     1         -3.0944705418098630     5.3079817511495673    -0.1806327022610791
12     1         -3.3104293533341171     7.2557651914185710     2.4359657845218576
13     1         -3.2630282911476565     5.3808780289869640     5.2216342515722838
14     1         -3.1870755144660303     7.0276104053777519     7.7071250741502570
15     1         -3.1000234628224441     5.2596190832800698    10.2350091041478102
16     1         -3.1854431301845829     6.9990061543769775    12.6636263449474935
17     1          3.1017055691538440    -0.0113722771607543    -0.1360695495294348
18     1          3.0286404239769866     1.7975881377937286     2.4012391543137666
19     1          3.0284077623092851    -0.0938208175002803     5.0989305519611188
20     1          2.9944879427230591     1.6423512070836825     7.8379475401819096
21     1          3.1043398996494220    -0.2338296667985658    10.1178695833718582
22     1          2.9115768935037898     1.7549594542507891    12.8818545458837157
23     1          1.5537371325500899     2.7317378677381741    -0.0801735220162436
24     1          1.5046023656785052     4.4316324970466701     2.4988144556613774
25     1          1.5947399988747830     2.6891870508017623     5.1009306917818353
26     1          1.4242374606775403     4.3284798827374447     7.7404641777191170
27     1          1.5522426565958676     2.5349408084832157    10.4011567412907517
28     1          1.3965103816900717     4.4156360692403647    13.0209280577517674
29     1          0.0920448959802912     5.2820653053018658    -0.0454187472515756
30     1         -0.0399230535040341     7.1205587416241549     2.7781107154576987
31     1         -0.0954203664657222     5.3933573253730689     5.2726875390505130
32     1         -0.0429861194114638     6.9883628212315578     7.7598370141627377
33     1         -0.1883321147885754     5.2466303704199273    10.2096152089005496
34     1         -0.2048811140556689     7.0484476969152468    12.7630488673584210
35     1          6.3409141839187626     0.0608241393697696     0.1679610847383676
36     1          6.3490076202383321     1.6931896577800425     2.4078840841215228
37     1          6.1111786119502183    -0.0287130766195386     5.1811483069367155
38     1          6.1606164018809464     1.7065864667105470     7.5802869391779755
39     1          6.3440204048129427    -0.2357434966457807    10.4619818188124079
40     1          5.9885030568956301     1.7030937272393798    13.0124087004760050
41     1          4.5765216124553536     2.7691100862644737    -0.2134351829512107
42     1          4.5805575418684503     4.4334815944137578     2.4992141083647663
43     1          4.5784016688346760     2.6735077183328890     5.0066342312754086
44     1          4.5368171483407309     4.4532747229022585     7.8072465197161716
45     1          4.5302463325319602     2.5273586649414561    10.2011380684596524
46     1          4.5374241326109024     4.3220863776351068    12.7088874826822416
47     1          2.9707189265421592     5.4946777290491520     0.0676341839094425
48     1          3.1085109229340877     7.0596604882554006     2.6006292653813228
49     1          3.0623275818955120     5.3548930980515932     5.2478931228583354
50     1          2.9305988611420886     7.2018496025364929     7.5027205412526188
51     1          2.9307499035957170     5.2181236872152850    10.2563351728178525
52     1          2.9106668861744769     7.0810456604942553    12.6805346563868842
ITEM: TIMESTEP energy, energy_weight, force_weight, nsims
3        -100035.1697918082209071    1    1   300
ITEM: NUMBER OF ATOMS
52        
ITEM: BOX BOUNDS xy xz yz pp pp pp
   -4.8140232057352872      9.3815188588964986     -4.7331169870961656
   -0.1409854654114964      8.1000315273278165     -0.0809062186391219
    0.0000000000000000     15.4517837289511863     -0.1409854654114964
ITEM: ATOMS id type x y z
1      1         -0.1467053774597658     0.0560329976885311     5.1324056875534332
2      1         -0.1867616485315962     1.8385075086005780     7.5691032305462853
3      1         -0.1151168653099754    -0.1533868951910719    10.3824143429144478
4      1         -0.1690549698373149     1.6211958820568710    12.9549440830096074
5      1         -1.4923078852139215     2.6980028640734672     0.0182132807126617
6      1         -1.6559037492272444     4.4594271229699221     2.6710047291013352
7      1         -1.6193561662086413     2.6408243829322657     5.1973145402343661
8      1         -1.5311173524294046     4.3434471579249285     7.6902702373683622
9      1         -1.7495116062494278     2.6149069989326779    10.0920994892183540
10     1         -1.8087052376415211     4.4857056954455770    13.0267145785839364
11     1         -3.0217590798939860     5.3833547499657133     0.0522860190562879
12     1         -3.1856373276249617     7.2008879968534565     2.4776544398751361
13     1         -3.0956319738445943     5.2853497750543648     5.1738138354928305
14     1         -3.2904129446967754     7.1863175599137037     7.7023733348482244
15     1         -3.2167999188185581     5.2139742414239949    10.3091690725755019
16     1         -3.1739451406711190     6.9891611884864497    12.8026651451957694
17     1          3.1271745165519764     0.0766338749507819     0.0034008005863500
18     1          3.0267650583570926     1.8689111349184895     2.5862126853508571
19     1          3.0479879303196884    -0.0902108090433770     5.1612482291332249
20     1          3.1362530123517307     1.6731779399021305     7.7612254789538548
21     1          3.1188803157288261    -0.1248511292779664    10.5168346214284885
22     1          3.2203386277321338     1.6083572734984710    12.9125461848305942
23     1          1.3696013711470987     2.8009988070177485     0.2143667677738991
24     1          1.4051291830657398     4.5080440300004954     2.3872719490366414
25     1          1.5727694198591331     2.7024159305446926     5.2383361695967769
26     1          1.4223029914888357     4.4016970085198164     7.8988242160572897
27     1          1.6238818109061730     2.5236754806374528    10.2963989491047698
28     1          1.5763109432283666     4.3976760895368940    12.6868305936930899
29     1          0.0825170254271959     5.3314496205750972    -0.0270244032249373
30     1         -0.1061762778374470     7.1026025145282272     2.6660719264853276
31     1          0.0894987517619867     5.3151135817860995     5.2930323008479148
32     1          0.0497924113435932     7.0974670711048669     7.8459968833628428
33     1          0.0765691424706555     5.2564462536019905    10.3743818864674626
34     1         -0.1605065298530884     7.1644980233516824    12.7828138512903440
35     1          6.1811187731951787    -0.0187011196933243     0.1292529379265606
36     1          6.1952351446221590     1.8259456548485153     2.5304498754054623
37     1          6.1352093725072825     0.0453577673789928     4.9451759012307779
38     1          6.0859123053594395     1.7741418458615748     7.5211495968990354
39     1          6.1167615538231486    -0.0928629644247870    10.2242954096109493
40     1          6.2948781327262706     1.6179967841259872    12.9427284073034361
41     1          4.5761688673462579     2.7208618729250547     0.2056625945766150
42     1          4.7339463133632940     4.5159629700692907     2.5307801048692955
43     1          4.6809069583426366     2.6007221424180260     5.0552455093946671
44     1          4.7000987314722824     4.5055738760849477     7.8720596809047434
45     1          4.7275453030458694     2.5688381124241801    10.3686685414823945
46     1          4.7073900479294153     4.3200074330559755    12.8076448554060711
47     1          3.2084381710596235     5.3047038484602691     0.2113506094607639
48     1          3.2037089474028542     7.1010545639165086     2.4014924553229569
49     1          3.0636597575734750     5.4310100513132502     5.1072275672399270
50     1          3.0550418943496926     7.2125360906686620     7.6830764887073606
51     1          2.9556418875840262     5.4084034053189667    10.1044981045422695
52     1          2.9422328826790061     7.0505894976707335    12.7458835023022985
ITEM: TIMESTEP energy, energy_weight, force_weight, nsims
4        -100035.0411278917745221    1    1   300
ITEM: NUMBER OF ATOMS
52        
ITEM: BOX BOUNDS xy xz yz pp pp pp
   -4.7729884422464757      9.3815188588964986     -4.7189415121003728
   -0.0939934374472842      8.1082966454425041     -0.0540469301461033
    0.0000000000000000     15.4833525399113707     -0.0939934374472842
ITEM: ATOMS id type x y z
1      1         -0.0401500862604193    -0.0035921835710715     5.1212050921877976
2      1         -0.0889668196426873     1.7376364796778365     7.9058050042401939
3      1          0.0720932198230760    -0.0649032237696178    10.3613312555828525
4      1         -0.1047559158822101     1.6963090128006257    12.7672686745411532
5      1         -1.6294065873621773     2.5933098043676117     0.0011755043130197
6      1         -1.5949370107708198     4.5361960917922719     2.4060143474129445
7      1         -1.4166525026801222     2.5810265817256588     5.2471960760071195
8      1         -1.6487681659831677     4.5062230771899836     7.6061677352540125
9      1         -1.7005072424899819     2.7148577008553612    10.1667153994625856
10     1         -1.7466877690729001     4.4658628449071252    13.0462253233547827
11     1         -3.1559194903356356     5.4714434594432078     0.1910855905736616
12     1         -3.2794797226186172     7.2478584473242931     2.6821649839358788
13     1         -3.1835396200081125     5.3076899859130551     5.3661893849095907
14     1         -3.2774345515073779     7.2619879528776776     7.7853247245985875
15     1         -3.2325927676656248     5.4211528894482068    10.4033173050839558
16     1         -3.2161751096625557     7.2179764334549352    12.9290923696420297
17     1          3.2764523064828515    -0.0647137170886680    -0.1811045926596816
18     1          3.2033674601163904     1.7385858893863568     2.4295891661534657
19     1          3.1746684557751395     0.0388423025314892     5.0467815030801697
20     1          3.1351262919367771     1.7807135998222317     7.9393148514522869
21     1          3.1967065817265738    -0.0859159497097741    10.1924695450340295
22     1          3.2189379669665006     1.6718504549835969    13.0938599853608277
23     1          1.4420876766103627     2.7512270350156447    -0.0921058758528741
24     1          1.5565656604860469     4.4313942064676537     2.7388912758680823
25     1          1.4677630174233904     2.6715310323093195     5.1805178688693987
26     1          1.3553414624815758     4.5464510300569314     7.5275646794947484
27     1          1.5891983356848329     2.7365224423562107    10.3708610024397192
28     1          1.5805861013723657     4.3667123865431057    12.9768761977979334
29     1          0.0930505948019649     5.3153378000868265    -0.1786053560356715
30     1          0.0710134070024171     7.0939020939384863     2.7658828437770131
31     1         -0.0714365135029533     5.4817687590993094     5.0374665930051723
32     1         -0.0618091988499537     7.1638901009296267     7.6614624074083491
33     1         -0.0477979004341918     5.3580096386165188    10.5023974020565358
34     1          0.0059216147037355     7.0543336618473189    13.0290365045015140
35     1          6.2989694131006360    -0.0419569667926428    -0.0310584563342627
36     1          6.3377676224934882     1.6785929525874856     2.7544026791493814
37     1          6.1200910548661707     0.0702028437730084     4.9950292924469544
38     1          6.3426234966548538     1.7361917257735666     7.5980095664543166
39     1          6.0855483024277142    -0.0306569273271020    10.2365823848604460
40     1          6.2040425145268925     1.6195606833197653    12.9637805356227993
41     1          4.7935752472304394     2.6577158076377083    -0.0417862231494109
42     1          4.5420163860923317     4.5882813463449796     2.7593758222964828
43     1          4.7068956418855530     2.7510075074743470     5.0389479348329917
44     1          4.6967232609868512     4.4059843626383319     7.9432832339295993
45     1          4.7368151818303437     2.6857787450003254    10.2358384304149368
46     1          4.6545036116661587     4.3517441732037367    12.9753695258691959
47     1          3.0051641111844840     5.4329754795141882    -0.0342434819868581
48     1          3.0851556317348647     7.2134948818960414     2.7831992512867645
49     1          3.2631380549183051     5.2791598489112657     5.0699341534720412
50     1          3.1117006393461124     7.1048287489534436     7.6702172408074709
51     1          3.0968825303084855     5.2408100761198693    10.4513384856669891
52     1          3.2251963781972703     7.0271854225734431    13.0414970378498989
ITEM: TIMESTEP energy, energy_weight, force_weight, nsims
5        -100035.4357636132044718    1    1   300
ITEM: NUMBER OF ATOMS
52        
ITEM: BOX BOUNDS xy xz yz pp pp pp
   -4.7318317190124946      9.3815188588964986     -4.7047566555857205
   -0.0469920279642113      8.1165336190006148     -0.0270750634267739
    0.0000000000000000     15.5147243389755189     -0.0469920279642113
ITEM: ATOMS id type x y z
1      1         -0.0525721553814842     0.0304571009754075     5.0145269030913981
2      1         -0.1046105023398972     1.7773221807547406     7.6747006686701384
3      1          0.0230241235835038     0.0351975824548079    10.5455730281489473
4      1          0.1204211760727955     1.7021630805685775    13.0191474454723490
5      1         -1.4904287669864844     2.6265616598110850    -0.0612538129335070
6      1         -1.6716009065819502     4.5161224558898923     2.7221011715663153
7      1         -1.6656183120056316     2.6433827231250864     5.3586654067847546
8      1         -1.6326741703807306     4.3760713897567403     7.5501281705022816
9      1         -1.6528866527622232     2.5663942267614379    10.1703798207288720
10     1         -1.6585315126596214     4.4048510751601784    13.0327544004252953
11     1         -3.0868883982681026     5.3814193426251222    -0.2076242701700102
12     1         -3.1403790043458732     7.1320557929857324     2.4338727676644383
13     1         -3.2009958121488609     5.4197062592401659     5.3437056368123592
14     1         -3.1048033466810518     7.2875347668823389     7.7396151502623871
15     1         -3.2209981485079142     5.3602480690162517    10.1875132886208721
16     1         -3.2708890657995258     7.2705776715448831    13.0348474172827142
17     1          3.0585787269594973     0.1021290906017191     0.0419954310199643
18     1          3.0510463054676888     1.8218731375118684     2.6836106759920346
19     1          3.2513351660419278    -0.0951670654565320     5.1312151728102391
20     1          3.1359922061274528     1.7090547443223223     7.9086494807582115
21     1          2.9444459829778200     0.0419363274511532    10.1894430670501510
22     1          3.2365170570043009     1.7441791509300313    12.8531546033905784
23     1          1.6480242115376571     2.6394528048750945    -0.1370039488077809
24     1          1.5142109172937872     4.5135969510130769     2.4122896453776601
25     1          1.5549464103310016     2.8001413361940459     5.1149598150834299
26     1          1.5055902396143470     4.5261850730179436     7.6643331521791715
27     1          1.4745008242678499     2.6232743756029278    10.5159752743010131
28     1          1.4703185431605539     4.5278409110965399    12.8493147477216318
29     1         -0.0953894074534878     5.3748260111710904    -0.0760146947060948
30     1          0.0532260472459493     7.3088298765401474     2.4016847764595641
31     1         -0.1680267553703799     5.4593947747727265     5.3302919411479097
32     1         -0.0265994204206292     7.1611976050171231     7.5753213012459613
33     1         -0.1476369622824542     5.3700564469832281    10.4208457349199204
34     1         -0.0030358595027389     7.2431873890844489    13.0854025461095347
35     1          6.2304740057599473    -0.0971428133282156    -0.0070830467384669
36     1          6.3628669380485805     1.7705975080366836     2.4732460641633405
37     1          6.1502789062503291     0.0583905733777718     5.0727851970532596
38     1          6.1005756193358947     1.8582809358994739     7.8615401838082626
39     1          6.2292759858016655     0.0487172892823636    10.3757966195113838
40     1          6.1322429362440998     1.8183869651039026    12.8273451068578677
41     1          4.6258956080578395     2.6421959609894361    -0.1812706455434840
42     1          4.7297255680286767     4.5212541467057088     2.5442876157223342
43     1          4.6614496882292853     2.7590709229335681     5.3382915622788891
44     1          4.5701806438586248     4.5870767593234971     7.6454565980831850
45     1          4.6104057822699156     2.7849695438954383    10.3093857856611404
46     1          4.6460780695789827     4.3728122501051603    13.0931648148133846
47     1          3.0413354952968450     5.3889667745471046    -0.0943912138469012
48     1          3.2500151863384814     7.1864038698872061     2.3945642036456611
49     1          3.0311162068038491     5.4490666606609679     4.9584141624925673
50     1          3.0329868816643133     7.0831142854026403     7.8798463415576281
51     1          3.0117705767649188     5.3754320572893750    10.2108760850351832
52     1          3.0731576072662223     7.2891962338722491    12.9456310492383793
ITEM: TIMESTEP energy, energy_weight, force_weight, nsims
6        -100035.6384320507349912    1    1   300
ITEM: NUMBER OF ATOMS
52        
ITEM: BOX BOUNDS xy xz yz pp pp pp
   -4.6905811805899322      9.3815188588965004     -4.6905811805899322
    0.0000000000000000      8.1247330664832909      0.0000000000000010
    0.0000000000000000     15.5459085076624941      0.0000000000000016
ITEM: ATOMS id type x y z
1      1          0.1074624840730017    -0.0434120403676577     5.2519131036893718
2      1          0.0589872379771976     1.7949697558802109     7.8345589355700760
3      1          0.0621431809213304    -0.0274906647122244    10.2185923842966275
4      1         -0.0640823408694643     1.7475499306560325    12.8843153182804038
5      1         -1.4823315780593707     2.7737464328845403     0.0464131882506187
6      1         -1.4301900343935099     4.4707337294986642     2.6752104640057790
7      1         -1.5724795309263933     2.6820486531020280     5.2528353069932017
8      1         -1.5717271331139098     4.4534717347982946     7.8732877217233739
9      1         -1.5911647020376574     2.7527524699821018    10.2761695799893307
10     1         -1.4548850064857832     4.4878981564029017    13.1134673597759246
11     1         -3.1246096092959541     5.4889737655829416     0.2115232294077676
12     1         -3.0409086361887652     7.2758444562322673     2.6781947251547935
13     1         -3.1608532311035287     5.4934459356229777     5.2114065197123143
14     1         -3.1006632824086209     7.2162793166933614     7.9385127315898512
15     1         -3.0373849377053639     5.4416862197746738    10.3693421345364616
16     1         -3.3058886982064113     7.3293754028411300    12.8395983086394718
17     1          2.9803762620555077     0.0977000755484340     0.1263840694595101
18     1          3.1094237447190580     1.7140691661524028     2.6497696611642234
19     1          3.1041860427401362    -0.0389107876191591     5.3233796380526730
20     1          3.1422609370289676     1.7475321057702007     7.7957429012913924
21     1          3.0033506635890590     0.0015366927890872    10.3696751784559531
22     1          3.1527757433660186     1.7696265208347879    12.9224868422134804
23     1          1.7149735445704004     2.6102725286163828    -0.0113422563004059
24     1          1.5434343485392497     4.4586841066762970     2.7513668196466425
25     1          1.7300956148190556     2.6310235101803765     5.2898003676010257
26     1          1.4769221942853312     4.4942691458599784     7.8046281378026530
27     1          1.5521957490015732     2.7766031053770739    10.4235982725531180
28     1          1.5263018187991326     4.4525560985576664    12.8737113875141915
29     1          0.0794821040763429     5.4292763466281260     0.0642108676778312
30     1          0.1069934081300569     7.2498154321582584     2.4381197812518605
31     1         -0.1031282223601915     5.4447080069991243     5.1394268162674308
32     1         -0.0151239465524270     7.1637681411844607     7.8256549360210972
33     1          0.0346187427412140     5.4341416023083493    10.1775538682002704
34     1          0.1827482347637602     7.1127317404401769    12.7947039882921096
35     1          6.2711916739113294    -0.0106433331454181    -0.1433711856573140
36     1          6.2817327485011853     1.8917701437700767     2.5424938693165133
37     1          6.1191378925501070     0.0096648407284352     5.1779689101954354
38     1          6.3388718272631808     1.7658560884053975     7.8295154310315338
39     1          6.3747880340625791     0.0179665467666727    10.3623397688601830
40     1          6.1662331172217675     1.7898521373426830    12.8995912454383443
41     1          4.6947109251916173     2.6053068906843695    -0.0032328713987757
42     1          4.7901594362139157     4.5101370468579152     2.3844771945685763
43     1          4.6587374911271784     2.6103879212983472     5.3788628787360730
44     1          4.6081926819711017     4.5804946856920949     7.9626016575638392
45     1          4.5296918847673995     2.7852735051064670    10.3296526808520159
46     1          4.7568090748224234     4.4604187495133072    12.8045011084364564
47     1          3.0895480588646005     5.3225944049241853     0.1671139335854092
48     1          3.0675108710650520     7.2612121012680468     2.4576624231868278
49     1          2.9640402232665113     5.5214056762781469     5.2717625212910244
50     1          3.1585510063755557     7.2049642667976475     7.9024980188424330
51     1          3.0715927699205583     5.4165840897639246    10.1617028539362799
52     1          3.0168290917336358     7.2844257315325001    13.1635853098239206
ITEM: TIMESTEP energy, energy_weight, force_weight, nsims
7        -100035.5751241934049176    1    1   300
ITEM: NUMBER OF ATOMS
52        
ITEM: BOX BOUNDS xy xz yz pp pp pp
   -4.6763963240752808      9.4087065005495809     -4.6763963240752808
    0.0000000000000000      8.1798963973736001      0.0271876416530815
    0.0000000000000000     15.5769050459722873      0.0469920279642128
ITEM: ATOMS id type x y z
1      1          0.0902154998028064    -0.0635579139652520     5.0974801691455331
2      1         -0.0544475210013776     1.9024434977758431     7.6459406844563054
3      1          0.0371348660991700    -0.0595041596663228    10.5418101009346437
4      1          0.0866561515477411     1.9052879742938607    12.8719908169554706
5      1         -1.6445155234844300     2.6421621875215440     0.0547177087445138
6      1         -1.6333008558405051     4.5730532649332183     2.4867254304598028
7      1         -1.6788218616476427     2.8259170592588636     5.1739948988068072
8      1         -1.5429633962925329     4.6482442622835025     7.5909959429554057
9      1         -1.3987356779634019     2.6799631414596954    10.2042949495556687
10     1         -1.6044592524125996     4.6699333957333851    13.0724916998559220
11     1         -3.0851631369499519     5.4871462457092290    -0.0717292168913509
12     1         -3.2378792535426122     7.3109651102324325     2.5819056300427374
13     1         -3.1074039037087378     5.4901548988072770     5.0602139617823374
14     1         -3.0423580808524648     7.3332856199015186     7.6402751852174173