ITEM: TIMESTEP energy, energy_weight, force_weight, nsims
1        -53866.1826791164276074    1    1   1
ITEM: NUMBER OF ATOMS
28        
ITEM: BOX BOUNDS xy xz yz pp pp pp
    0.0000000000000000      5.1819682108325038      0.0000000000000002
    0.0000000000000000      3.1909886586439158      0.0000000000000031
    0.0000000000000000     49.9999458776315748      0.0000000000000031
ITEM: ATOMS id type x y z
1      1          0.0000000000000000     0.0000000000000000     0.0523202602374914
2      1          0.0000000000000000     1.5954953657155986     2.8084770113899222
3      1          2.5909841054162501     1.5954953657155986     0.8169953264817049
4      1          2.5909841054162501     0.0000000000000000     3.6456089481421010
5      1          0.0000000000000000     0.0000000000000000     5.5525991595695148
6      1          0.0000000000000000     1.5954953657155986     8.2949775754461630
7      1          2.5909841054162501     1.5954953657155986     6.4329119192257398
8      1          2.5909841054162501     0.0000000000000000     9.2146598203873680
9      1          0.0000000000000000     0.0000000000000000    11.0535781428068223
10     1          0.0000000000000000     1.5954953657155986    13.8200433833210603
11     1          2.5909841054162501     1.5954953657155986    11.9811255790984266
12     1          2.5909841054162501     0.0000000000000000    14.7419699386943783
13     1          0.0000000000000000     0.0000000000000000    16.5826563486673670
14     1          0.0000000000000000     1.5954953657155986    19.3429705929153499
15     1          2.5909841054162501     1.5954953657155986    17.5031645993413782
16     1          2.5909841054162501     0.0000000000000000    20.2635690098362282
17     1          0.0000000000000000     0.0000000000000000    22.1043968875413732
18     1          0.0000000000000000     1.5954953657155986    24.8654226160247056
19     1          2.5909841054162501     1.5954953657155986    23.0264493647422128
20     1          2.5909841054162501     0.0000000000000000    25.7929223782087718
21     1          0.0000000000000000     0.0000000000000000    27.6317650438923472
22     1          0.0000000000000000     1.5954953657155986    30.4133911688010201
23     1          2.5909841054162501     1.5954953657155986    28.5513747412786003
24     1          2.5909841054162501     0.0000000000000000    31.2937614483043802
25     1          0.0000000000000000     0.0000000000000000    33.2007931154774809
26     1          0.0000000000000000     1.5954953657155986    36.0294632205913814
27     1          2.5909841054162501     1.5954953657155986    34.0379872358481990
28     1          2.5909841054162501     0.0000000000000000    36.7941419142133483
