ITEM: TIMESTEP energy, energy_weight, force_weight, nsims
1        -3846.3565165018958396    1    1   201
ITEM: NUMBER OF ATOMS
2         
ITEM: BOX BOUNDS xy xz yz pp pp pp
   -1.5955036057726721      4.5127706617471004     -1.5955036057726721
    0.0000000000000000      3.9081722123395330      0.0000000000000002
    0.0000000000000000      2.5909982499007738      0.0000000000000002
ITEM: ATOMS id type x y z
1      1         -0.0000004512770662    -0.0000000000000000    -0.0000036102165294
2      1          0.4385510529085831     2.6067491733414703     1.2955031864439828
ITEM: TIMESTEP energy, energy_weight, force_weight, nsims
2        -3846.4024915162299294    1    1   201
ITEM: NUMBER OF ATOMS
2         
ITEM: BOX BOUNDS xy xz yz pp pp pp
   -1.5955067019887557      4.4959428252288998     -1.5955067019887557
    0.0000000000000000      3.8935988852188581      0.0000000000000002
    0.0000000000000000      2.6104343231844043      0.0000000000000002
ITEM: ATOMS id type x y z
1      1         -0.0000004495942825     0.0000000000000000     0.0000026975656951
2      1          0.4329467054296324     2.5970323672166788     1.3052194095636145
ITEM: TIMESTEP energy, energy_weight, force_weight, nsims
3        -3846.7008085553961791    1    1   201
ITEM: NUMBER OF ATOMS
2         
ITEM: BOX BOUNDS xy xz yz pp pp pp
   -1.5954983517305199      4.3524828730249991     -1.5954983517305199
    0.0000000000000000      3.7693589801114755      0.0000000000000002
    0.0000000000000000      2.7853104798321260      0.0000000000000003
ITEM: ATOMS id type x y z
1      1         -0.0000000000000000     0.0000000000000000    -0.0000013057448619
2      1          0.3851790653243696     2.5141595018084146     1.3926591571506486
ITEM: TIMESTEP energy, energy_weight, force_weight, nsims
4        -3847.5007637365997653    1    1   201
ITEM: NUMBER OF ATOMS
2         
ITEM: BOX BOUNDS xy xz yz pp pp pp
   -1.5955081285447839      3.4113411356785002     -1.5955081285447839
    0.0000000000000000      2.9543067070259741      0.0000000000000003
    0.0000000000000000      4.5342591199920630      0.0000000000000005
ITEM: ATOMS id type x y z
1      1          0.0000000000000000    -0.0000000000000000    -0.0000003411341136
2      1          0.0717722295558807     1.9705264113451018     2.2671329713371673
ITEM: TIMESTEP energy, energy_weight, force_weight, nsims
5        -3847.5112643422526162    1    1   201
ITEM: NUMBER OF ATOMS
2         
ITEM: BOX BOUNDS xy xz yz pp pp pp
   -1.5955000724032626      3.4040384896422999     -1.5955000724032626
    0.0000000000000000      2.9479824329924735      0.0000000000000003
    0.0000000000000000      4.5536707925952351      0.0000000000000005
ITEM: ATOMS id type x y z
1      1         -0.0000003404038490     0.0000000000000000    -0.0000000000000000
2      1          0.0693457104955971     1.9663019850799988     2.2768384599322578
ITEM: TIMESTEP energy, energy_weight, force_weight, nsims
6        -3847.5215267121329816    1    1   201
ITEM: NUMBER OF ATOMS
2         
ITEM: BOX BOUNDS xy xz yz pp pp pp
   -1.5954954587184991      3.3967887613309999     -1.5954954587184991
    0.0000000000000000      2.9417039870316799      0.0000000000000003
    0.0000000000000000      4.5730899158024023      0.0000000000000005
ITEM: ATOMS id type x y z
1      1         -0.0000003396788761    -0.0000000000000000     0.0000000000000000
2      1          0.0669344018997796     1.9621213997741147     2.2865480150110860
ITEM: TIMESTEP energy, energy_weight, force_weight, nsims
7        -3847.5315252675277407    1    1   201
ITEM: NUMBER OF ATOMS
2         
ITEM: BOX BOUNDS xy xz yz pp pp pp
   -1.5954944895832857      3.3895919507446002     -1.5954944895832857
    0.0000000000000000      2.9354713691435927      0.0000000000000003
    0.0000000000000000      4.5925174589604500      0.0000000000000005
ITEM: ATOMS id type x y z
1      1          0.0000000000000000    -0.0000000000000000     0.0000003389591951
2      1          0.0645388476197624     1.9579645723465009     2.2962624580313706
ITEM: TIMESTEP energy, energy_weight, force_weight, nsims
8        -3847.5412370148073933    1    1   201
ITEM: NUMBER OF ATOMS
2         
ITEM: BOX BOUNDS xy xz yz pp pp pp
   -1.5954973664554004      3.3824480578831002     -1.5954973664554004
    0.0000000000000000      2.9292845793282116      0.0000000000000003
    0.0000000000000000      4.6119577795794324      0.0000000000000005
ITEM: ATOMS id type x y z
1      1         -0.0000000000000000     0.0000000000000000     0.0000003382448058
2      1          0.0621582332253004     1.9538318842387010     2.3059819339929684
ITEM: TIMESTEP energy, energy_weight, force_weight, nsims
9        -3847.5506405930250367    1    1   201
ITEM: NUMBER OF ATOMS
2         
ITEM: BOX BOUNDS xy xz yz pp pp pp
   -1.5955042901576084      3.3753570827465000     -1.5955042901576084
    0.0000000000000000      2.9231436175855379      0.0000000000000003
    0.0000000000000000      4.6314084618064575      0.0000000000000005
ITEM: ATOMS id type x y z
1      1          0.0000000000000000     0.0000000000000000    -0.0000003375357083
2      1          0.0597931005780211     1.9497331644206894     2.3157065936531871
ITEM: TIMESTEP energy, energy_weight, force_weight, nsims
10       -3847.5597169542056690    1    1   201
ITEM: NUMBER OF ATOMS
2         
ITEM: BOX BOUNDS xy xz yz pp pp pp
   -1.5954870263848722      3.3682661076099003     -1.5954870263848722
    0.0000000000000000      2.9170026558428637      0.0000000000000003
    0.0000000000000000      4.6507940568723054      0.0000000000000005
ITEM: ATOMS id type x y z
1      1          0.0000000000000000     0.0000000000000000    -0.0000000000000000
2      1          0.0574420733725685     1.9456381610409565     2.3254007335288716
ITEM: TIMESTEP energy, energy_weight, force_weight, nsims
11       -3847.5684489551667866    1    1   201
ITEM: NUMBER OF ATOMS
2         
ITEM: BOX BOUNDS xy xz yz pp pp pp
   -1.5955025983250255      3.3612809679231002     -1.5955025983250255
    0.0000000000000000      2.9109533502456029      0.0000000000000003
    0.0000000000000000      4.6702679765423607      0.0000000000000005
ITEM: ATOMS id type x y z
1      1          0.0000000000000000     0.0000000000000000     0.0000000000000000
2      1          0.0551065208286153     1.9416076492863248     2.3351373495521477
ITEM: TIMESTEP energy, energy_weight, force_weight, nsims
12       -3847.5768228541555800    1    1   201
ITEM: NUMBER OF ATOMS
2         
ITEM: BOX BOUNDS xy xz yz pp pp pp
   -1.5954942907713927      3.3542958282363005     -1.5954942907713927
    0.0000000000000000      2.9049040446483425      0.0000000000000003
    0.0000000000000000      4.6896812490071103      0.0000000000000005
ITEM: ATOMS id type x y z
1      1          0.0000000000000000     0.0000000000000000     0.0000003354295828
2      1          0.0527848763010405     1.9375710816378393     2.3448439787993829
ITEM: TIMESTEP energy, energy_weight, force_weight, nsims
13       -3847.5848284468970633    1    1   201
ITEM: NUMBER OF ATOMS
2         
ITEM: BOX BOUNDS xy xz yz pp pp pp
   -1.5954940840218426      3.3473636062744001     -1.5954940840218426
    0.0000000000000000      2.8989005671237873      0.0000000000000003
    0.0000000000000000      4.7091079423064937      0.0000000000000005
ITEM: ATOMS id type x y z
1      1          0.0000000000000000    -0.0000000000000000     0.0000003347363606
2      1          0.0504775737098967     1.9335687703738196     2.3545573185168536
ITEM: TIMESTEP energy, energy_weight, force_weight, nsims
14       -3846.7236896660042476    1    1   201
ITEM: NUMBER OF ATOMS
2         
ITEM: BOX BOUNDS xy xz yz pp pp pp
   -1.5955044012848305      4.3374013214284997     -1.5955044012848305
    0.0000000000000000      3.7562979793901166      0.0000000000000002
    0.0000000000000000      2.8047588774951322      0.0000000000000003
ITEM: ATOMS id type x y z
1      1         -0.0000000000000000    -0.0000000000000000     0.0000047711414536
2      1          0.3801519725567330     2.5054521619086372     1.4023829086686233
ITEM: TIMESTEP energy, energy_weight, force_weight, nsims
15       -3847.5924562094037356    1    1   201
ITEM: NUMBER OF ATOMS
2         
ITEM: BOX BOUNDS xy xz yz pp pp pp
   -1.5954954742763112      3.3404843020374000     -1.5954954742763112
    0.0000000000000000      2.8929429176719395      0.0000000000000003
    0.0000000000000000      4.7285490630943965      0.0000000000000005
ITEM: ATOMS id type x y z
1      1          0.0000000000000000    -0.0000000000000000    -0.0000003340484302
2      1          0.0481851498631687     1.9295906712602795     2.3642775379830701
ITEM: TIMESTEP energy, energy_weight, force_weight, nsims
16       -3847.5997035565933402    1    1   201
ITEM: NUMBER OF ATOMS
2         
ITEM: BOX BOUNDS xy xz yz pp pp pp
   -1.5955053466599858      3.3336579155253001     -1.5955053466599858
    0.0000000000000000      2.8870310962927985      0.0000000000000003
    0.0000000000000000      4.7480056237398101      0.0000000000000005
ITEM: ATOMS id type x y z
1      1          0.0000000000000000     0.0000000000000000    -0.0000000000000000
2      1          0.0459064696915327     1.9256471576424117     2.3740054787962377
ITEM: TIMESTEP energy, energy_weight, force_weight, nsims
17       -3847.6065710326920453    1    1   201
ITEM: NUMBER OF ATOMS
2         
ITEM: BOX BOUNDS xy xz yz pp pp pp
   -1.5954918451787370      3.3268315290132002     -1.5954918451787370
    0.0000000000000000      2.8811192749136572      0.0000000000000003
    0.0000000000000000      4.7673994835488518      0.0000000000000005
ITEM: ATOMS id type x y z
1      1          0.0000000000000000    -0.0000000000000000     0.0000000000000000
2      1          0.0436413759975952     1.9217076375876558     2.3837037339722600
ITEM: TIMESTEP energy, energy_weight, force_weight, nsims
18       -3847.6130639439229526    1    1   201
ITEM: NUMBER OF ATOMS
2         
ITEM: BOX BOUNDS xy xz yz pp pp pp
   -1.5954871014222063      3.3200580602260001     -1.5954871014222063
    0.0000000000000000      2.8752532816072218      0.0000000000000003
    0.0000000000000000      4.7868132304210027      0.0000000000000005
ITEM: ATOMS id type x y z
1      1          0.0000000000000000    -0.0000000000000000     0.0000003320058060
2      1          0.0413904998252255     1.9177926938102443     2.3934099352685618
ITEM: TIMESTEP energy, energy_weight, force_weight, nsims
19       -3847.6191914061037096    1    1   201
ITEM: NUMBER OF ATOMS
2         
ITEM: BOX BOUNDS xy xz yz pp pp pp
   -1.5954846641376326      3.3133375091637003     -1.5954846641376326
    0.0000000000000000      2.8694331163734939      0.0000000000000003
    0.0000000000000000      4.8062412440176248      0.0000000000000005
ITEM: ATOMS id type x y z
1      1         -0.0000000000000000    -0.0000000000000000     0.0000003313337509
2      1          0.0391530466782856     1.9139123027883087     2.4031245980138238
ITEM: TIMESTEP energy, energy_weight, force_weight, nsims
20       -3847.6249659364771105    1    1   201
ITEM: NUMBER OF ATOMS
2         
ITEM: BOX BOUNDS xy xz yz pp pp pp
   -1.5954880551054453      3.3066698758263002     -1.5954880551054453
    0.0000000000000000      2.8636587792124715      0.0000000000000003
    0.0000000000000000      4.8256911900532620      0.0000000000000005
ITEM: ATOMS id type x y z
1      1         -0.0000000000000000     0.0000000000000000    -0.0000003306669876
2      1          0.0369295505072033     1.9100565203976145     2.4128479096955440
ITEM: TIMESTEP energy, energy_weight, force_weight, nsims
21       -3847.6304001883413548    1    1   201
ITEM: NUMBER OF ATOMS
2         
ITEM: BOX BOUNDS xy xz yz pp pp pp
   -1.5955007686946876      3.3000551602138004     -1.5955007686946876
    0.0000000000000000      2.8579302701241560      0.0000000000000003
    0.0000000000000000      4.8451574865017015      0.0000000000000005
ITEM: ATOMS id type x y z
1      1          0.0000000000000000     0.0000000000000000    -0.0000000000000000
2      1          0.0347195503350934     1.9062356126079989     2.4225810532894627
ITEM: TIMESTEP energy, energy_weight, force_weight, nsims
22       -3847.6355087197944158    1    1   201
ITEM: NUMBER OF ATOMS
2         
ITEM: BOX BOUNDS xy xz yz pp pp pp
   -1.5954940496253205      3.2934404446013001     -1.5954940496253205
    0.0000000000000000      2.8522017610358419      0.0000000000000003
    0.0000000000000000      4.8645630349365714      0.0000000000000005
ITEM: ATOMS id type x y z
1      1         -0.0000000000000000    -0.0000000000000000     0.0000000000000000
2      1          0.0325220657023489     1.9024189862909613     2.4322848109087301
ITEM: TIMESTEP energy, energy_weight, force_weight, nsims
23       -3847.6403020072225445    1    1   201
ITEM: NUMBER OF ATOMS
2         
ITEM: BOX BOUNDS xy xz yz pp pp pp
   -1.5954903376585901      3.2868786467137001     -1.5954903376585901
    0.0000000000000000      2.8465190800202325      0.0000000000000003
    0.0000000000000000      4.8839894155451198      0.0000000000000005
ITEM: ATOMS id type x y z
1      1          0.0000000000000000     0.0000000000000000     0.0000003286878647
2      1          0.0303382185970321     1.8986269937940023     2.4419986520269359
ITEM: TIMESTEP energy, energy_weight, force_weight, nsims
24       -3847.6447895746155154    1    1   201
ITEM: NUMBER OF ATOMS
2         
ITEM: BOX BOUNDS xy xz yz pp pp pp
   -1.5954964059457757      3.2803697665510003     -1.5954964059457757
    0.0000000000000000      2.8408822270773304      0.0000000000000003
    0.0000000000000000      4.9034376803846369      0.0000000000000005
ITEM: ATOMS id type x y z
1      1          0.0000000000000000     0.0000000000000000     0.0000003280369767
2      1          0.0281672230374668     1.8948701676547062     2.4517227766360379
ITEM: TIMESTEP energy, energy_weight, force_weight, nsims
25       -3846.7448217641267547    1    1   201
ITEM: NUMBER OF ATOMS
2         
ITEM: BOX BOUNDS xy xz yz pp pp pp
   -1.5954980618472228      4.3224256052817998     -1.5954980618472228
    0.0000000000000000      3.7433286348141714      0.0000000000000002
    0.0000000000000000      2.8241734747022065      0.0000000000000003
ITEM: ATOMS id type x y z
1      1         -0.0000000000000000     0.0000004322425605     0.0000008644851211
2      1          0.3751718462914023     2.4968037654221762     1.4120901952915876
ITEM: TIMESTEP energy, energy_weight, force_weight, nsims
26       -3847.6489772724235081    1    1   201
ITEM: NUMBER OF ATOMS
2         
ITEM: BOX BOUNDS xy xz yz pp pp pp
   -1.5955091532965273      3.2739138041132003     -1.5955091532965273
    0.0000000000000000      2.8352912022071339      0.0000000000000003
    0.0000000000000000      4.9229088872275240      0.0000000000000005
ITEM: ATOMS id type x y z
1      1         -0.0000000000000000    -0.0000000000000000    -0.0000003273913804
2      1          0.0260092808253969     1.8911383315458621     2.4614573901361858
ITEM: TIMESTEP energy, energy_weight, force_weight, nsims
27       -3847.6528655088172854    1    1   201
ITEM: NUMBER OF ATOMS
2         
ITEM: BOX BOUNDS xy xz yz pp pp pp
   -1.5955029315479385      3.2674578416754003     -1.5955029315479385
    0.0000000000000000      2.8297001773369388      0.0000000000000003
    0.0000000000000000      4.9423207892819514      0.0000000000000005
ITEM: ATOMS id type x y z
1      1          0.0000000000000000     0.0000000000000000    -0.0000000000000000
2      1          0.0238638783466763     1.8874107534617517     2.4711636620988173
ITEM: TIMESTEP energy, energy_weight, force_weight, nsims
28       -3847.6564544198522526    1    1   201
ITEM: NUMBER OF ATOMS
2         
ITEM: BOX BOUNDS xy xz yz pp pp pp
   -1.5955036699618725      3.2610547969625001     -1.5955036699618725
    0.0000000000000000      2.8241549805394497      0.0000000000000003
    0.0000000000000000      4.9617568336195852      0.0000000000000005
ITEM: ATOMS id type x y z
1      1         -0.0000000000000000     0.0000000000000000     0.0000000000000000
2      1          0.0217310169559987     1.8837085185968647     2.4808810256536300
ITEM: TIMESTEP energy, energy_weight, force_weight, nsims
29       -3847.6597433252459268    1    1   201
ITEM: NUMBER OF ATOMS
2         
ITEM: BOX BOUNDS xy xz yz pp pp pp
   -1.5954856180325423      3.2546517522496003     -1.5954856180325423
    0.0000000000000000      2.8186097837419601      0.0000000000000003
    0.0000000000000000      4.9811338486584367      0.0000000000000005
ITEM: ATOMS id type x y z
1      1         -0.0000000000000000    -0.0000000000000000     0.0000003254651752
2      1          0.0196105786680047     1.8800108543311298     2.4905698535157952
ITEM: TIMESTEP energy, energy_weight, force_weight, nsims
30       -3847.6627329052817004    1    1   201
ITEM: NUMBER OF ATOMS
2         
ITEM: BOX BOUNDS xy xz yz pp pp pp
   -1.5955007975877649      3.2483545429865002     -1.5955007975877649
    0.0000000000000000      2.8131562430898831      0.0000000000000003
    0.0000000000000000      5.0006176824642505      0.0000000000000005
ITEM: ATOMS id type x y z
1      1         -0.0000000000000000     0.0000000000000000    -0.0000000000000000
2      1          0.0175027839485199     1.8763785437043585     2.5003114399157593
ITEM: TIMESTEP energy, energy_weight, force_weight, nsims
31       -3847.6654219354477391    1    1   201
ITEM: NUMBER OF ATOMS
2         
ITEM: BOX BOUNDS xy xz yz pp pp pp
   -1.5954974653586278      3.2420573337234000     -1.5954974653586278
    0.0000000000000000      2.8077027024378083      0.0000000000000003
    0.0000000000000000      5.0200437222826491      0.0000000000000005
ITEM: ATOMS id type x y z
1      1         -0.0000000000000000    -0.0000000000000000    -0.0000000000000000
2      1          0.0154072290670537     1.8727413498405179     2.5100244547871924
ITEM: TIMESTEP energy, energy_weight, force_weight, nsims
32       -3847.6678123205406337    1    1   201
ITEM: NUMBER OF ATOMS
2         
ITEM: BOX BOUNDS xy xz yz pp pp pp
   -1.5955049874015521      3.2358130421852001     -1.5955049874015521
    0.0000000000000000      2.8022949898584377      0.0000000000000003
    0.0000000000000000      5.0394940616557369      0.0000000000000005
ITEM: ATOMS id type x y z
1      1         -0.0000000000000000    -0.0000000000000000    -0.0000000000000000
2      1          0.0133237837825018     1.8691292212243829     2.5197502666409104
ITEM: TIMESTEP energy, energy_weight, force_weight, nsims
33       -3847.6699044687320566    1    1   201
ITEM: NUMBER OF ATOMS
2         
ITEM: BOX BOUNDS xy xz yz pp pp pp
   -1.5954941611758848      3.2295687506470001     -1.5954941611758848
    0.0000000000000000      2.7968872772790689      0.0000000000000003
    0.0000000000000000      5.0588901485072304      0.0000000000000005
ITEM: ATOMS id type x y z
1      1          0.0000000000000000    -0.0000000000000000    -0.0000000000000000
2      1          0.0112521404841292     1.8655219569431067     2.5294483038223654
ITEM: TIMESTEP energy, energy_weight, force_weight, nsims
34       -3847.6716956588829817    1    1   201
ITEM: NUMBER OF ATOMS
2         
ITEM: BOX BOUNDS xy xz yz pp pp pp
   -1.5954912170982605      3.2233773768337004     -1.5954912170982605
    0.0000000000000000      2.7915253927724053      0.0000000000000003
    0.0000000000000000      5.0783117922385514      0.0000000000000005
ITEM: ATOMS id type x y z
1      1         -0.0000000000000000    -0.0000000000000000    -0.0000000000000000
2      1          0.0091924276032543     1.8619500962655300     2.5391594418343901
ITEM: TIMESTEP energy, energy_weight, force_weight, nsims
35       -3847.6731830337957945    1    1   201
ITEM: NUMBER OF ATOMS
2         
ITEM: BOX BOUNDS xy xz yz pp pp pp
   -1.5954963428149294      3.2172389207453000     -1.5954963428149294
    0.0000000000000000      2.7862093363384495      0.0000000000000003
    0.0000000000000000      5.0977633285047386      0.0000000000000005
ITEM: ATOMS id type x y z
1      1         -0.0000000000000000    -0.0000000000000000    -0.0000000000000000
2      1          0.0071448441951912     1.8584036381120703     2.5488842380435059
ITEM: TIMESTEP energy, energy_weight, force_weight, nsims
36       -3846.7642890690335662    1    1   201
ITEM: NUMBER OF ATOMS
2         
ITEM: BOX BOUNDS xy xz yz pp pp pp
   -1.5954865498078419      4.3076086423098001     -1.5954865498078419
    0.0000000000000000      3.7304967744563449      0.0000000000000002
    0.0000000000000000      2.8435903082652532      0.0000000000000003
ITEM: ATOMS id type x y z
1      1         -0.0000004307608642     0.0000000000000000    -0.0000030153260496
2      1          0.3702437011760339     2.4882444715786476     1.4217986002195402
ITEM: TIMESTEP energy, energy_weight, force_weight, nsims
37       -3847.6743626478182705    1    1   201
ITEM: NUMBER OF ATOMS
2         
ITEM: BOX BOUNDS xy xz yz pp pp pp
   -1.5955097253371329      3.2111533823818004     -1.5955097253371329
    0.0000000000000000      2.7809391079771983      0.0000000000000003
    0.0000000000000000      5.1172394405561352      0.0000000000000005
ITEM: ATOMS id type x y z
1      1          0.0000000000000000    -0.0000000000000000    -0.0000000000000000
2      1          0.0051086239160312     1.8548829330309049     2.5586235736621270
ITEM: TIMESTEP energy, energy_weight, force_weight, nsims
38       -3847.6752332764372113    1    1   201
ITEM: NUMBER OF ATOMS
2         
ITEM: BOX BOUNDS xy xz yz pp pp pp
   -1.5955084132950619      3.2050678440183002     -1.5955084132950619
    0.0000000000000000      2.7756688796159485      0.0000000000000003
    0.0000000000000000      5.1366628765049640      0.0000000000000005
ITEM: ATOMS id type x y z
1      1         -0.0000000000000000     0.0000000000000000    -0.0000000000000000
2      1          0.0030842367862988     1.8513769919526526     2.5683352843338954
ITEM: TIMESTEP energy, energy_weight, force_weight, nsims
39       -3847.6757926066848086    1    1   201
ITEM: NUMBER OF ATOMS
2         
ITEM: BOX BOUNDS xy xz yz pp pp pp
   -1.5954860269807194      3.1989823056548006     -1.5954860269807194
    0.0000000000000000      2.7703986512546992      0.0000000000000003
    0.0000000000000000      5.1560333077321525      0.0000000000000005
ITEM: ATOMS id type x y z
1      1          0.0000000000000000     0.0000000000000000    -0.0000000000000000
2      1          0.0010710192759332     1.8478559803614412     2.5780192130519213
ITEM: TIMESTEP energy, energy_weight, force_weight, nsims
40       -3847.6760424073013382    1    1   201
ITEM: NUMBER OF ATOMS
2         
ITEM: BOX BOUNDS xy xz yz pp pp pp
   -1.5955018915558921      3.1930026027411000     -1.5955018915558921
    0.0000000000000000      2.7652200790388619      0.0000000000000003
    0.0000000000000000      5.1755155677648288      0.0000000000000005
ITEM: ATOMS id type x y z
1      1         -0.0000000000000000    -0.0000000000000000    -0.0000000000000000
2      1         -0.0009307602586990     1.8444012339434648     2.5877606575847572
ITEM: TIMESTEP energy, energy_weight, force_weight, nsims
41       -3847.6759847191415247    1    1   201
ITEM: NUMBER OF ATOMS
2         
ITEM: BOX BOUNDS xy xz yz pp pp pp
   -1.5955033392260924      3.1870228998273999     -1.5955033392260924
    0.0000000000000000      2.7600415068230237      0.0000000000000003
    0.0000000000000000      5.1949429374056573      0.0000000000000006
ITEM: ATOMS id type x y z
1      1          0.0000000000000000    -0.0000000000000000    -0.0000000000000000
2      1         -0.0029212251899818     1.8409515891540091     2.5974752931303078
ITEM: TIMESTEP energy, energy_weight, force_weight, nsims
42       -3847.6756260729403039    1    1   201
ITEM: NUMBER OF ATOMS
2         
ITEM: BOX BOUNDS xy xz yz pp pp pp
   -1.5954840258440355      3.1810431969137003     -1.5954840258440355
    0.0000000000000000      2.7548629346071878      0.0000000000000003
    0.0000000000000000      5.2143182927329832      0.0000000000000006
ITEM: ATOMS id type x y z
1      1          0.0000000000000000     0.0000000000000000    -0.0000000000000000
2      1         -0.0049007151491652     1.8374971560565905     2.6071623274096885
ITEM: TIMESTEP energy, energy_weight, force_weight, nsims
43       -3847.6749725912623035    1    1   201
ITEM: NUMBER OF ATOMS
2         
ITEM: BOX BOUNDS xy xz yz pp pp pp
   -1.5955035370325479      3.1751693294498002     -1.5955035370325479
    0.0000000000000000      2.7497760185367639      0.0000000000000003
    0.0000000000000000      5.2338125903838835      0.0000000000000006
ITEM: ATOMS id type x y z
1      1          0.0000000000000000     0.0000000000000000    -0.0000000000000000
2      1         -0.0068691613273317     1.8340990961585895     2.6169088353274055
ITEM: TIMESTEP energy, energy_weight, force_weight, nsims
44       -3847.6740286279300562    1    1   201
ITEM: NUMBER OF ATOMS
2         
ITEM: BOX BOUNDS xy xz yz pp pp pp
   -1.5955057372457135      3.1692954619859002     -1.5955057372457135
    0.0000000000000000      2.7446891024663396      0.0000000000000003
    0.0000000000000000      5.2532498465374182      0.0000000000000006
ITEM: ATOMS id type x y z
1      1         -0.0000000000000000     0.0000000000000000    -0.0000000000000000
2      1         -0.0088264878616307     1.8307061259297035     2.6266287264232635
ITEM: TIMESTEP energy, energy_weight, force_weight, nsims
45       -3847.6728004415658688    1    1   201
ITEM: NUMBER OF ATOMS
2         
ITEM: BOX BOUNDS xy xz yz pp pp pp
   -1.5954906617267381      3.1634215945220001     -1.5954906617267381
    0.0000000000000000      2.7396021863959152      0.0000000000000003
    0.0000000000000000      5.2726361060911389      0.0000000000000006
ITEM: ATOMS id type x y z
1      1         -0.0000000000000000    -0.0000000000000000    -0.0000000000000000
2      1         -0.0107730322401447     1.8273185335175284     2.6363215328093226
ITEM: TIMESTEP energy, energy_weight, force_weight, nsims
46       -3847.6712925220494981    1    1   201
ITEM: NUMBER OF ATOMS
2         
ITEM: BOX BOUNDS xy xz yz pp pp pp
   -1.5954882417991778      3.1576006447829998     -1.5954882417991778
    0.0000000000000000      2.7345610983981974      0.0000000000000003
    0.0000000000000000      5.2920565830395443      0.0000000000000006
ITEM: ATOMS id type x y z
1      1          0.0000000000000000     0.0000000000000000    -0.0000000000000000
2      1         -0.0127087110751226     1.8239570679725809     2.6460311333603515
ITEM: TIMESTEP energy, energy_weight, force_weight, nsims
47       -3846.7822019229356556    1    1   201
ITEM: NUMBER OF ATOMS
2         
ITEM: BOX BOUNDS xy xz yz pp pp pp
   -1.5955032811224295      4.2930033502373997     -1.5955032811224295
    0.0000000000000000      3.7178482263893451      0.0000000000000002
    0.0000000000000000      2.8630511573101747      0.0000000000000003
ITEM: ATOMS id type x y z
1      1         -0.0000000000000000     0.0000004293003350     0.0000034344026802
2      1          0.3653702170330097     2.4798057329274461     1.4315277251567622
ITEM: TIMESTEP energy, energy_weight, force_weight, nsims
48       -3847.6695074544632007    1    1   201
ITEM: NUMBER OF ATOMS
2         
ITEM: BOX BOUNDS xy xz yz pp pp pp
   -1.5954923387423565      3.1518326127689003     -1.5954923387423565
    0.0000000000000000      2.7295658384731878      0.0000000000000003
    0.0000000000000000      5.3115124446947286      0.0000000000000006
ITEM: ATOMS id type x y z
1      1          0.0000000000000000    -0.0000000000000000    -0.0000000000000000
2      1         -0.0146339588210860     1.8206214386072146     2.6557587438134549
ITEM: TIMESTEP energy, energy_weight, force_weight, nsims
49       -3847.6674512253143803    1    1   201
ITEM: NUMBER OF ATOMS
2         
ITEM: BOX BOUNDS xy xz yz pp pp pp
   -1.5954857532902462      3.1460645807548002     -1.5954857532902462
    0.0000000000000000      2.7245705785481764      0.0000000000000003
    0.0000000000000000      5.3309120501515848      0.0000000000000006
ITEM: ATOMS id type x y z
1      1          0.0000000000000000     0.0000000000000000    -0.0000000000000000
2      1         -0.0165486143012283     1.8172911713949120     2.6654591711403732
ITEM: TIMESTEP energy, energy_weight, force_weight, nsims
50       -3847.6651292768819985    1    1   201
ITEM: NUMBER OF ATOMS
2         
ITEM: BOX BOUNDS xy xz yz pp pp pp
   -1.5954859499325116      3.1403494664656004     -1.5954859499325116
    0.0000000000000000      2.7196211466958724      0.0000000000000003
    0.0000000000000000      5.3503515613939667      0.0000000000000006
ITEM: ATOMS id type x y z
1      1         -0.0000000000000000    -0.0000000000000000    -0.0000000000000000
2      1         -0.0184526934649519     1.8139867552849895     2.6751782929765566
ITEM: TIMESTEP energy, energy_weight, force_weight, nsims
51       -3847.6625471875036055    1    1   201
ITEM: NUMBER OF ATOMS
2         
ITEM: BOX BOUNDS xy xz yz pp pp pp
   -1.5954993960089030      3.1346872699013004     -1.5954993960089030
    0.0000000000000000      2.7147175429162740      0.0000000000000003
    0.0000000000000000      5.3698258727081045      0.0000000000000006
ITEM: ATOMS id type x y z
1      1          0.0000000000000000    -0.0000000000000000    -0.0000000000000000
2      1         -0.0203469416002023     1.8107185603046978     2.6849157575725946
ITEM: TIMESTEP energy, energy_weight, force_weight, nsims
52       -3847.6597102634000294    1    1   201
ITEM: NUMBER OF ATOMS
2         
ITEM: BOX BOUNDS xy xz yz pp pp pp
   -1.5954961429446830      3.1290250733370004     -1.5954961429446830
    0.0000000000000000      2.7098139391366756      0.0000000000000003
    0.0000000000000000      5.3892481738363216      0.0000000000000006
ITEM: ATOMS id type x y z