ITEM: TIMESTEP energy, energy_weight, force_weight, nsims
1        -92341.2319920961745083    1    1   1
ITEM: NUMBER OF ATOMS
48        
ITEM: BOX BOUNDS xy xz yz pp pp pp
    0.0000000000000000      3.1909917291949039      0.0000000000000007
    0.0000000000000000     24.7576443850902024      0.0000000000000031
    0.0000000000000000     48.2771329233851034     13.0120697147162403
ITEM: ATOMS id type x y z
1      1          0.0000000000000000     0.0213802827839517     0.0009630413038710
2      1          1.5954958645974500     3.2743299028887640     4.8755558313343297
3      1          0.0000000000000000     4.5706635917915612     2.4165661172465143
4      1          1.5954958645974500     5.8941641078800320     0.0009678277914648
5      1          0.0000000000000000     9.1471130897864974     4.8755583841277126
6      1          1.5954958645974500    10.4434499696810246     2.4165686700398981
7      1          0.0000000000000000     1.4164805903912701     2.8623735088480489
8      1          1.5954958645974500     2.7004396133682493     0.3748627106846896
9      1          0.0000000000000000     5.9927998959236568     5.2979355998584605
10     1          1.5954958645974500     7.2892640963881759     2.8623747852447403
11     1          0.0000000000000000     8.5732199283734278     0.3748643061805542
12     1          1.5954958645974500    11.8655865929122921     5.2979375144534977
13     1          0.0000000000000000     1.9704817475628862     7.3192686725186231
14     1          1.5954958645974500     5.2436584260407200    12.1942686330937278
15     1          0.0000000000000000     6.5454841308086333     9.7552711203876630
16     1          1.5954958645974500     7.8432662108573119     7.3192664388244131
17     1          0.0000000000000000    11.1164492713186043    12.1942657612011711
18     1          1.5954958645974500    12.4182714659956144     9.7552727158835300
19     1          0.0000000000000000     3.3902541650219944    10.1599061030049143
20     1          1.5954958645974500     4.6923258952522291     7.7240702249041391
21     1          0.0000000000000000     7.9642842530878557    12.6003673236171601
22     1          1.5954958645974500     9.2630399047131107    10.1599003592198027
23     1          0.0000000000000000    10.5651116349433476     7.7240689485074476
24     1          1.5954958645974500    13.8370766938616043    12.6003733865014453
25     1          0.0000000000000000     3.9424118862716546    14.6285836845363697
26     1          1.5954958645974500     7.2143558846445002    19.5048539789188666
27     1          0.0000000000000000     8.5164375069490941    17.0690394804626742
28     1          1.5954958645974500     9.8151989023594624    14.6285785789496021
29     1          0.0000000000000000    13.0871610893851660    19.5048587654064605
30     1          1.5954958645974500    14.3892309050203604    17.0690442669502680
31     1          0.0000000000000000     5.3612027546748617    17.4736735057824077
32     1          1.5954958645974500     6.6630275021452565    15.0346871615473958
33     1          0.0000000000000000     9.9362159872924884    19.9096427673374627
34     1          1.5954958645974500    11.2340050875229718    17.4736766967741382
35     1          0.0000000000000000    12.5358291967950208    15.0346887570432592
36     1          1.5954958645974500    15.8089940686034556    19.9096418100399468
37     1          0.0000000000000000     5.9138812457747267    21.9309627569315388
38     1          1.5954958645974500     9.2062625888755463    26.8540685133201222
39     1          0.0000000000000000    10.4902267174392918    24.3665264434378130
40     1          1.5954958645974500    11.7866835786228350    21.9309617996340194
41     1          0.0000000000000000    15.0790448184757597    26.8540685133201222
42     1          1.5954958645974500    16.3630012886593583    24.3665232524460862
43     1          0.0000000000000000     7.3360197836010315    24.8123204328740847
44     1          1.5954958645974500     8.6323582589914221    22.3533457164473965
45     1          0.0000000000000000    11.8853251104515731    27.2279464839571794
46     1          1.5954958645974500    13.2088131816722996    24.8123166036840104
47     1          0.0000000000000000    14.5051471896742683    22.3533434827531856
48     1          1.5954958645974500    17.7581057445559232    27.2279445693621440
