ITEM: TIMESTEP energy, energy_weight, force_weight, nsims
1        -161568.9912451336858794    1    1   100
ITEM: NUMBER OF ATOMS
84        
ITEM: BOX BOUNDS xy xz yz pp pp pp
   -0.0483617297176115      9.3815188588964986     -0.0047282855048830
   -0.0436709702881611      5.4164199131838942     -0.0436334442127285
    0.0000000000000000     49.9999305407519685     -0.0436709702881611
ITEM: ATOMS id type x y z
1      1         -0.0438801781587166    -0.0046429136832679     0.5000940587479945
2      1          1.4484042532580577     2.6257023126836105     0.2627519512886578
3      1          1.5854579241157907     0.8400315182963373     2.6611306805023465
4      1          0.0438961267407767     3.6399364402151391     2.3372187314687709
5      1          3.1630522591240542     0.0615615267520788    -0.4487415008181668
6      1          4.6164484185669306     2.7787270812467284    -0.1908679393361352
7      1          4.5452539482505374     0.9662626689984475     2.2452957952336452
8      1          3.2367506568238871     3.5221570998530085     2.6227011648006489
9      1          6.2167985657193343    -0.0485202773863268     0.3140313333713861
10     1          7.6718871511643547     2.6228756610514248    -0.0179740519817598
11     1          7.7475040694708319     0.9601599909807352     2.5084811726935841
12     1          6.3745281659901885     3.6812986187121277     1.9593067598833867
13     1         -0.0162197079551462     0.0444805953656860     4.9728307425230334
14     1          1.5776675108553628     2.7805358380827236     5.8612286812964118
15     1          1.5499479370829816     0.9823791802461457     7.6542968033039243
16     1         -0.1597935344198123     3.6891434447819371     8.3292135896836825
17     1          3.2450673732922990    -0.0726936370300454     4.5883610892552795
18     1          4.5410697908394688     2.7513865208362467     5.0313076258743079
19     1          4.5760112578294283     0.9236780785941444     7.0382922027504913
20     1          3.1623345729313481     3.6773067824376668     8.4664792828676276
21     1          6.2525899983179096     0.0218683204600877     5.0623416902595375
22     1          7.7807812550152233     2.7113799718143681     4.6973011625485581
23     1          7.8192698742857329     0.8733968901180028     7.1875634256181655
24     1          6.2726645723721770     3.6321235113094494     7.2702211738282445
25     1          0.1049885775499107    -0.0884527124092198    10.9857810994130638
26     1          1.6250029024098114     2.6765426396837415    10.8272503174316572
27     1          1.5790278310899031     0.8211427682258351    12.3473265603160272
28     1         -0.1337663866495757     3.6614360669840722    12.5503810926498680
29     1          3.1877978914181653     0.0577591971585681    10.3730881750168198
30     1          4.5684065986424081     2.7019778136139823    10.4641967954149937
31     1          4.5355159316750022     0.8387331160862660    13.1753319095871433
32     1          3.2196819214120111     3.5770070880134330    12.1768484140678179
33     1          6.2896948435567310    -0.0534193065344426     9.6403024277078462
34     1          7.9276076540682698     2.6716905181299202    11.1424186908887410
35     1          7.7521413542427844     0.9607866764405095    12.8731100321553384
36     1          6.3130304335663512     3.5928843705302294    13.5892313875152553
37     1         -0.0513985273722363     0.0432891424706061    15.3383799289848444
38     1          1.4169686598656670     2.6511299813987628    15.2669584259120636
39     1          1.6065654033964221     0.9182208490739244    18.7974772735240094
40     1          0.0753880092463205     3.6534073631446282    18.8906629621975419
41     1          3.0361916085065124     0.0252437909455187    14.8673667023956551
42     1          4.7382073992290046     2.6460724045819317    16.1707345503989472
43     1          4.7504530957955211     0.8627038349226326    18.9329370243276145
44     1          3.0671252906399520     3.5981746090147610    18.7186434324008140
45     1          6.1473828313785868    -0.0374360128545406    15.8254346146708578
46     1          7.7895098201615411     2.7006578339105354    15.4798748108703794
47     1          7.7878990133734689     0.9226751942281284    18.0640601499958287
48     1          6.0989807611298819     3.5363907402657264    18.1753033861689666
49     1         -0.0702581947342759    -0.0715040604387373    20.4765214771686068
50     1          1.6446496792041123     2.6111994226796416    21.1494700208917692
51     1          1.6221678074106527     0.8758060641609675    22.8921002830581948
52     1         -0.0075633805040424     3.5202648474991691    23.9135281592507276
53     1          3.1948359068661096    -0.0580875503186295    20.2219971179191980
54     1          4.7272938783404514     2.6610631335665627    20.1733661386103371
55     1          4.5268061295664026     0.9004935310381534    22.8432563432712357
56     1          2.9809832463256778     3.6726694976657148    23.2803929052609462
57     1          6.2987057924207015    -0.0844036488697200    21.0959231257008462
58     1          7.7037223972601341     2.6356823724457037    20.8819222371624420
59     1          7.9202394091564923     0.8924094762374425    23.6754796234213138
60     1          6.2208213610060294     3.5882761684667388    24.0355817196049735
61     1         -0.0513900840052632    -0.0632351897165060    25.8031236669493111
62     1          1.6855287094798679     2.6532539572684173    26.4417433568639986
63     1          1.4811054135445130     0.8674274296680868    28.8951240548436310
64     1         -0.1180335795232063     3.5133647403784507    28.8829365236940312
65     1          3.1551267519920581    -0.0473335152506764    26.6391004927948352
66     1          4.7703090804603772     2.6797933359683497    25.6919526684713873
67     1          4.7274833850214000     0.8054108992513517    28.4657225551530715
68     1          3.2484090703098385     3.6232157591529273    28.7494262525093056
69     1          6.3456640469170216     0.0481853571630642    25.5397478446565351
70     1          7.8499624513844983     2.6281640232321846    26.0991978350728822
71     1          7.9184043840676921     0.8527969510076379    27.9652241529422625
72     1          6.3365076845107389     3.5056840908886722    28.2837117077716265
73     1          0.0069648396008448    -0.1038515374642125    31.8723481265625459
74     1          1.6106979624537656     2.6956340305615965    31.0292282122578627
75     1          1.5955430568891045     0.8191285561268300    33.6104377336012661
76     1          0.0992592839827827     3.6346452635787214    33.4739094277996330
77     1          3.1387428674568816    -0.0779491638947992    31.1328029949157354
78     1          4.5923501110740830     2.6460339403546107    30.9814584563802455
79     1          4.6477808152518731     0.8087525962688906    32.8835060540602413
80     1          3.0979257552055945     3.6517984326603274    34.2564022146305902
81     1          6.2880812223130009    -0.1090488989120411    30.8865737746413664
82     1          7.7523871500368884     2.6062037638872795    31.7379362914154761
83     1          7.7339881152508205     0.8152990201286285    34.1707123595253037
84     1          6.2315575711881497     3.5906262389408927    33.6544595726947549
ITEM: TIMESTEP energy, energy_weight, force_weight, nsims
2        -161570.7338437579164747    1    1   100
ITEM: NUMBER OF ATOMS
84        
ITEM: BOX BOUNDS xy xz yz pp pp pp
   -0.0386893837740881      9.3815188588964986     -0.0037807521001347
   -0.0349273947116705      5.4164199131838942     -0.0349086316739534
    0.0000000000000000     49.9999493037896841     -0.0349273947116705
ITEM: ATOMS id type x y z
1      1          0.1360657969218913     0.0671332108023775    -0.6391534983377596
2      1          1.6598317911734641     2.7826851440532967    -0.6534396752560871
3      1          1.6168991464194964     0.8845777842940356     2.7650769713070344
4      1         -0.1309031470938405     3.6194415741159940     1.9775988453544628
5      1          3.2494157072833976     0.0462096092913806    -0.4399256875464618
6      1          4.8065067328255422     2.6467722658888055    -0.7979263235057240
7      1          4.8125531217301019     0.8168995072459562     2.0773028133311575
8      1          3.1647212313290520     3.5683554513217586     2.2580274544770536
9      1          6.1422952337014074     0.0556483554153164     0.0061936787506435
10     1          7.8893835936295815     2.7535226926804173     0.2705179726000523
11     1          7.8904136844002881     0.8173488819992973     2.2745483091875704
12     1          6.3282284941177620     3.6082644325475042     3.3355802672429324
13     1         -0.0249904899363285     0.0631263640977428     4.6248054755664354
14     1          1.4868562846050168     2.6381581552725670     5.9033911033520639
15     1          1.4706844223960507     0.8720722196551265     7.3551661363361234
16     1         -0.1401552009924843     3.6469566307772512     8.1992148210078390
17     1          3.0238999424975859     0.0446813598692664     5.4462615865221577
18     1          4.8125812662866787     2.6272943564339646     4.7791577290480882
19     1          4.6805101200949055     0.9056270981577416     7.9769075356717698
20     1          2.9922579556903002     3.6372355009356623     7.5303247223430363
21     1          6.3453638383135376    -0.0363618289451969     4.6354581902307128
22     1          7.7510446546881804     2.7789888256228918     4.7507448610320342
23     1          7.9292147082487991     0.8433422563016419     7.8233161233695743
24     1          6.3693824028960844     3.6468281039688839     7.8279740474830168
25     1         -0.0333306602018875     0.0257278773186378    10.5343621131125680
26     1          1.5467375813294673     2.7783780887451774    10.8446004984092994
27     1          1.4781202142436121     0.8599653695677206    13.2109160106189378
28     1         -0.0707319614366502     3.5487218086538599    13.4342693353077767
29     1          3.0247789908146645    -0.0769716096297022    10.3530980346322821
30     1          4.6941151987440772     2.6702157433653024    11.1059170773125473
31     1          4.7747512296400645     0.8124470383955240    12.5185242690607126
32     1          3.1612238010984552     3.5249593595361612    13.2557587326125805
33     1          6.1911954626015193    -0.0628674341772372     9.7069524902889892
34     1          7.8216818627843550     2.6957663099775067    10.3440936528315142
35     1          7.6701815910358073     0.8857579793664848    12.6517924970588815
36     1          6.2191336257633134     3.5942024739299039    13.7112793189581854
37     1         -0.1213527608954839     0.0000178248858319    16.2626931364057334
38     1          1.5155900005660448     2.7240065580465567    15.2961077431585419
39     1          1.4930096228245666     0.9610512352723305    17.4636269944443896
40     1          0.0215174516547650     3.5177130743695493    18.1470171686575092
41     1          3.0497272639161279     0.0294298246603583    15.0406461701751315
42     1          4.7627738445129104     2.7501134487270944    16.1466062220457509
43     1          4.7038194418517199     0.8897620116154618    18.4119268692837075
44     1          3.2076867113990257     3.5953404521674881    18.2774821988206355
45     1          6.2592799594161894    -0.0601064531770640    15.0117032463435507
46     1          7.7233823081808373     2.7152489101917769    14.9003333596658187
47     1          7.7804566544627063     0.9565978282700124    18.0418315792115607
48     1          6.3802311913045120     3.6183148537010399    17.6665248554132894
49     1         -0.0097136246265014    -0.0076703298190338    20.6454057033626910
50     1          1.4543371257844238     2.6091870868844085    20.1831660732103444
51     1          1.4423982048845920     0.8376608084806942    22.8508919614704951
52     1          0.0945544522750460     3.5410833759989462    23.1099006867344556
53     1          3.2164171528491150    -0.0514360534476718    20.1336476022174296
54     1          4.8099244201458387     2.6300675334086545    20.6267486768080026
55     1          4.8118663945496314     0.9506583886804448    23.3747878717153945
56     1          3.1811454563953219     3.6729997271295476    22.8562075300559435
57     1          6.1608162282326404     0.0277064396459790    20.9248802120173281
58     1          7.6993778158765798     2.6294858792394029    20.6910195862065294
59     1          7.7036407780460614     0.8023834831155857    23.3961383323344663
60     1          6.1912273597656391     3.5513261182890896    22.5560364526466941
61     1         -0.0014569498787866     0.0102070925184794    25.7583916468782057
62     1          1.5253064396482039     2.7089182612657940    25.7989751593099079
63     1          1.5205518858905152     0.8959631955811925    28.0024762880271680
64     1         -0.0603475582117376     3.5785606675364661    28.8174948007419189
65     1          3.1963022382637551    -0.0814325218471075    26.0653267993847209
66     1          4.7651389254172392     2.6785380887450292    26.4342315747136816
67     1          4.6932849343250638     0.9215531645726044    29.1002913052244949
68     1          3.2544198094427332     3.5220285730446412    27.9714581722240005
69     1          6.3317418729304196    -0.0583971404409730    26.4054284355130982
70     1          7.6611021570841675     2.6941451835186894    26.6071188950048558
71     1          7.7389575057903768     0.8070582939629739    28.7533505418479827
72     1          6.3055421052131795     3.6211668354341446    28.5216082629955210
73     1         -0.1296131882507423     0.0593155911372590    31.4747978215498314
74     1          1.4343723155008063     2.6508691751744857    31.7048129627803732
75     1          1.6197032824064206     0.9594488718512308    33.8684820387265262
76     1          0.0147937170885939     3.5165113018037246    33.9073665580928818
77     1          3.1382859874884530    -0.0310396932965450    30.5059186469416375
78     1          4.8053087128672622     2.7646998342489066    30.9912630817396746
79     1          4.6331109342122163     0.8107414782669765    33.1308798196353962
80     1          3.0242714506443984     3.6683858961547422    33.9016419552851858
81     1          6.1836283294899328    -0.0707582296894551    31.0657542177830877
82     1          7.8438363195696388     2.7525226227700585    30.8404523516272597
83     1          7.8940340125279365     0.9613908462550225    33.4425798455703429
84     1          6.3606566522054244     3.6467530518180133    33.7883038259508552
ITEM: TIMESTEP energy, energy_weight, force_weight, nsims
3        -161557.3881414662464522    1    1   100
ITEM: NUMBER OF ATOMS
84        
ITEM: BOX BOUNDS xy xz yz pp pp pp
   -0.0290170378305651      9.3815188588964986     -0.0028332186953868
   -0.0261932006540389      5.4164199131838942     -0.0261838191351782
    0.0000000000000000     49.9999586853085347     -0.0261932006540389
ITEM: ATOMS id type x y z
1      1          0.0633899847776778     0.0504688188533196    -0.0303032440661216
2      1          1.4398905248936089     2.7910290669263995    -0.4890248046463825
3      1          1.6840942752463426     0.8952248700469972     2.4068361684649844
4      1          0.0594384890343106     3.6508518374074646     2.8893426938082052
5      1          3.2238294908995293     0.0519276450358780    -0.7316543361345932
6      1          4.6878380244755897     2.6503719546749642     0.7943754186176316
7      1          4.7751161707236758     0.9548772577112907     2.5297987979966550
8      1          3.2369861329472456     3.5603530157351195     1.9523916423324941
9      1          6.3663399763301429     0.0307451136043756    -0.3821542944133772
10     1          7.8852482201165799     2.6738069887844875    -0.6763484061576266
11     1          7.9510633275192832     0.8811000552530426     2.9520778485695320
12     1          6.3201116040010454     3.5499648599026639     3.2078386920045405
13     1         -0.0176316265434101     0.0167103613914664     4.8585563376065863
14     1          1.5287766634741098     2.6909245080944300     4.6396648632870416
15     1          1.4096848486236200     0.9412111991895361     8.3526157884772001
16     1          0.0303717291537915     3.6260630501266027     6.9828811997623053
17     1          3.2122273665267320     0.0240870496702168     5.0448282708537482
18     1          4.8199692123880604     2.6695946868168434     5.7775849354542617
19     1          4.8155674037394647     0.9581148198694958     7.7988603800082039
20     1          3.0505856728917169     3.6409243141509804     8.0831738760902638
21     1          6.3778023160719437    -0.0329009866381500     5.4776849839400317
22     1          7.9555270541923457     2.6840985149726970     5.4958898212857203
23     1          7.7576173468007221     0.9597134306830517     7.7223006190564067
24     1          6.3453394463645036     3.6552208107400528     8.2975031177887271
25     1          0.1379392862380129     0.0269362169476636     9.6260040548149988
26     1          1.6977443851860370     2.6721427073389195    10.4047611208363406
27     1          1.6963793741920676     0.8368661938333456    13.1257421390509030
28     1         -0.0319928556126088     3.6502739358457568    13.3059507966595625
29     1          3.1994797587012633     0.0737068410668062    10.2853850459644267
30     1          4.6761233218764859     2.7374540271788987    10.8062197666056701
31     1          4.5577961008129959     0.9011774437629670    13.5844749574537946
32     1          3.0142369780729226     3.6285716682694709    13.4052025754272570
33     1          6.3564293398076055    -0.0555348390371237    10.4815826261643021
34     1          7.6873460179400439     2.7769999436248054    11.0279988724299809
35     1          7.8586422326327501     0.8842672560198062    12.7903462727821520
36     1          6.2943340046324554     3.6149947341768764    12.4569148965624539
37     1          0.1115790945482855     0.0491619732762753    14.8044936393071058
38     1          1.6818961853777032     2.6558395038659288    15.3288220375714008
39     1          1.5131292281693562     0.8456623059154469    18.0498114991529341
40     1          0.0359321553814595     3.6178542211250684    18.8587263956980848
41     1          3.2573177606182466    -0.0871242893388000    14.7907984980768870
42     1          4.5926765879303728     2.6302401533556581    14.8815496826065363
43     1          4.5640404397654768     0.8449727642793181    17.6548279777000161
44     1          3.0232160297727724     3.6130846569372057    17.3796952359732764
45     1          6.2573332942529669     0.0271351051474722    16.0886303118015412
46     1          7.7321605953771071     2.7774680814158645    15.7730238214137479
47     1          7.7175751480071817     0.9433211027809020    17.7706062400895455
48     1          6.3389881580970311     3.6167303151657721    18.6792598162311698
49     1         -0.0227698844224277     0.0443576974686344    21.2490623487940411
50     1          1.6839779444124923     2.6705084467536992    20.8219030321107645
51     1          1.5482592636883803     0.8057026644878633    24.0173027682602935
52     1          0.1207551581441722     3.6225384134913154    22.5417774821330532
53     1          3.1625390900424724     0.0606993651689462    20.9468536054886378
54     1          4.8117772701204711     2.7288783807899817    21.2781065930292996
55     1          4.5953353103749839     0.8780857732436792    23.0216290376392116
56     1          3.2098557185592034     3.6423221604609561    22.6332360331846658
57     1          6.0980313514213620    -0.0906151525061954    21.1963851204013380
58     1          7.7255015932910620     2.7838034211012777    21.0158021401902104
59     1          7.7592591126010300     0.9576720121793558    23.1970793888826314
60     1          6.1950418853336666     3.6756959756495942    23.7487145740895151
61     1         -0.0142814861588981     0.0596589547274946    25.7984685572915247
62     1          1.5845178959261290     2.7712443818048729    26.5779329898348280
63     1          1.4079605254573546     0.9509285764235811    28.8785112612482919
64     1         -0.0967985115860941     3.6777608479504376    29.0938518306797427
65     1          3.0668475976817282    -0.0687637187800537    26.4281448452780268
66     1          4.6714860371045326     2.6645511822782999    26.6162668140441667
67     1          4.5365094345221593     0.9429317697482578    27.9103582161997785
68     1          3.1437225776671838     3.6134364638944136    28.5624638394741304
69     1          6.3766943586947082     0.0582245204939693    26.5646928522692676
70     1          7.9133768281112093     2.6709831516079596    25.9699636601840389
71     1          7.7221936697414160     0.8419960083453902    28.0988610746315892
72     1          6.2149382105296143     3.6027321508764127    28.8269100930687046
73     1          0.0857705361674612     0.0052742899024716    31.4473643841026487
74     1          1.4297528556146857     2.7335644494600007    30.3122747161751569
75     1          1.5403769115431352     0.8805578034629984    32.9831246502153235
76     1          0.0139052872526564     3.6261305970623869    34.1201478491796379
77     1          3.2494701200927794     0.0499162473925306    31.4565188702051621
78     1          4.7642401759105564     2.7419787337245447    31.1099449242160340
79     1          4.6038649873214919     0.8299266843334200    34.1995839838135609
80     1          3.2047118317688699     3.5840197733604575    32.9142764977655347
81     1          6.1899524113527153     0.0282533821954527    30.3143714856401232
82     1          7.7320067384678222     2.7496687647331828    31.1958608739258061
83     1          7.7018704854373876     0.8713517190067634    33.1461970254763116
84     1          6.2420592433987974     3.5322534904489533    33.5899372385908066
ITEM: TIMESTEP energy, energy_weight, force_weight, nsims
4        -161569.9358992267807480    1    1   100
ITEM: NUMBER OF ATOMS
84        
ITEM: BOX BOUNDS xy xz yz pp pp pp
   -0.0193446918870436      9.3815188588964986     -0.0018950668094969
   -0.0174590065964025      5.4164199131838942     -0.0174496250775467
    0.0000000000000000     49.9999680668274067     -0.0174590065964025
ITEM: ATOMS id type x y z
1      1         -0.1316039465526001     0.0691408558381813    -0.2050415380281560
2      1          1.6757531668288976     2.6456295968917920     0.7450436398500104
3      1          1.6243499486972319     0.9054788701597711     1.8740756610503120
4      1         -0.0109810678243384     3.5419173930255021     2.8310328014926198
5      1          3.1284944962554233    -0.0055182093928029    -0.5327680126297593
6      1          4.7154675356669253     2.7073806303248205    -0.6059870147159029
7      1          4.7130180210928669     0.8598884411130776     2.2321729266538211
8      1          3.1963350735797609     3.5929031335679471     2.4348024761833540
9      1          6.3492703027663815    -0.0342810080622937    -0.5054752979654575
10     1          7.7504780109491023     2.6399856751462800    -0.2501938501441390
11     1          7.7702739538932599     0.9754293510754751     2.4518243040009362
12     1          6.2263527045252340     3.5794453447648600     2.0615099644840913
13     1          0.1441282742292269    -0.0221113017985332     5.6215993595392755
14     1          1.4273333619009760     2.6547034019321165     5.0819077859916515
15     1          1.4938014230162577     0.8354692856752560     7.4985260641708065
16     1         -0.1411055488528905     3.6465457202512312     7.0557540238025558
17     1          3.2137077702026660    -0.0581560354062994     5.2327260213191575
18     1          4.6336316085088853     2.6889234301218279     5.3513769047832787
19     1          4.6596756430130677     0.8295851970469561     7.1560837390871388
20     1          3.1278734397069639     3.6139318080901637     8.3813410610712555
21     1          6.1115482437932593    -0.0037028854936064     4.7097579432894010
22     1          7.7185301866270155     2.6323134690234742     5.5672625404604332
23     1          7.7967607960875833     0.9554288910201938     8.1913568608116272
24     1          6.1070113412730969     3.5918223825954025     7.7252867565091936
25     1          0.0868344004060601     0.0718005164346785    10.3441199210843191
26     1          1.4985738016597785     2.6334673958431187    10.7002573873982048
27     1          1.5448912984180363     0.8127950927451891    12.4743279337164505
28     1         -0.1553551378476684     3.6465297716691714    12.7588947308077003
29     1          3.2715335761451318     0.0761647990078371    10.0024412516357657
30     1          4.8031397057070846     2.7230064881361984     9.6822997350315791
31     1          4.7347071545427495     0.9017703557548493    13.6378557997609153
32     1          3.2415089631891201     3.6242374065566616    13.0191483836242359
33     1          6.1805943462909658     0.0010704313018001    11.0723293634939264
34     1          7.8802197260082112     2.7492231425873848    10.7811373377845214
35     1          7.7365736618483325     0.9401473349509372    13.3573990460817491
36     1          6.1327401567436208     3.5667727890902627    12.9603478378723302
37     1         -0.0545938726955764    -0.0127447933698109    14.7674432068776635
38     1          1.5179259987619100     2.6889966059689270    14.7870261893437256
39     1          1.6007863877793418     0.8695833027018612    17.8672771630191569
40     1         -0.0986007013588881     3.6591694920277629    17.9174504640284233
41     1          3.2600318340241250    -0.0772324158539796    15.7698669403177263
42     1          4.7551982680343521     2.6312505429367614    16.2043429035590592
43     1          4.6195583920686545     0.8216981541422818    17.7474995591400813
44     1          3.0940324248791526     3.6759220702540940    18.5625931240057049
45     1          6.1404273732966006     0.0263170367029765    15.9901121678086131
46     1          7.6783116152789272     2.6550899205091034    14.7863328951000526
47     1          7.8422583480975732     0.8529489316131520    18.0034667959899899
48     1          6.3022595117644515     3.6748816598126419    18.1339261972418022
49     1         -0.1116419507246401     0.0551107943847016    20.5719352765711250
50     1          1.6527037131444746     2.6831566104792639    21.0481599368864352
51     1          1.5252266967379033     0.8694585285010380    22.7933232091447628
52     1         -0.1411571472066144     3.5812053177027892    24.0044266336264585
53     1          3.2418692135133016    -0.0056167153408213    20.6696043931073241
54     1          4.7480223442591818     2.6322506128471197    20.0103181552983749
55     1          4.5991310729052932     0.9769041258400937    24.0089034944259296
56     1          3.2087064824989882     3.6715568495290491    23.3830558042857390
57     1          6.2977948469395022     0.0517193753172105    20.9138869482184795
58     1          7.7273328657723193     2.6422034662045228    20.6332012854791529
59     1          7.7069505778994811     0.8799254890919089    22.7307240864068838
60     1          6.1922236770684549     3.6864228043128566    23.9141388961284385
61     1         -0.0599713593054959    -0.0716626081074527    26.4008117900826313
62     1          1.4698832406855011     2.6236149247375056    25.6596596042552960
63     1          1.6488544759566697     0.8493905215099725    28.6310286700543770
64     1         -0.0240213790382045     3.6721882257482532    28.9490161899285603
65     1          3.1927278795785154     0.0201768326098287    25.7187491007880524
66     1          4.7439676518083669     2.6545636173011191    25.6097020781797866
67     1          4.5600270259976412     0.9438389626219130    28.9851125218900449
68     1          3.0469306331442914     3.6825135254043544    28.0796186413001045
69     1          6.3736575610400834     0.0049149777301759    25.6591464351737137
70     1          7.7670626599878601     2.6205237142734989    26.4611865546990614
71     1          7.8561476867681694     0.8867158324419780    29.2024260247375267
72     1          6.2727490060419058     3.5474271590513324    28.4388876586090902
73     1          0.0214330179850349    -0.0820563928512241    30.7132905542543462
74     1          1.6550012471130184     2.6638100422884472    31.5052868196893598
75     1          1.6372495371282145     0.9522035248365051    34.0647049490273233
76     1         -0.0115974336133679     3.6616912442970340    33.3523455827298250
77     1          2.9846279664023592    -0.0425977245307054    30.5885707662404052
78     1          4.7651820804039904     2.6865236375977219    30.8694281107748481
79     1          4.7561823893626505     0.9010517314102579    33.8526976332464358
80     1          3.2057907064376430     3.5765201871846566    33.0161860608259516
81     1          6.2664633884064456    -0.0874010441451374    30.7220857281845596
82     1          7.9174549743591722     2.6473698686401170    31.0457912838032399
83     1          7.8687489428994386     0.8710993561494590    33.4005525173862594
84     1          6.2744245453101053     3.5432139189318019    33.0523339911411682
ITEM: TIMESTEP energy, energy_weight, force_weight, nsims
5        -161566.6110713890229817    1    1   100
ITEM: NUMBER OF ATOMS
84        
ITEM: BOX BOUNDS xy xz yz pp pp pp
   -0.0096723459435236      9.3815188588964986     -0.0009475334047483
   -0.0087248125387693      5.4164199131838942     -0.0087248125387753
    0.0000000000000000     49.9999680668273925     -0.0087248125387693
ITEM: ATOMS id type x y z