ITEM: TIMESTEP energy, energy_weight, force_weight, nsims
1        -96171.9669270402227994    1    1   100
ITEM: NUMBER OF ATOMS
50        
ITEM: BOX BOUNDS xy xz yz pp pp pp
   -0.0219683899945828     23.3353398357829143      7.6994750709554154
   -0.0128214091071586     13.6087687132562056     -0.0219683899945828
    0.0000000000000000     25.1819511003738050     -0.0128214091071586
ITEM: ATOMS id type x y z
1      1          1.7598236888527541     2.8693411738226691    13.5532987750974669
2      1          3.2972209346681822     1.8677644913784683    11.5297325849638490
3      1          4.7193109708325016     2.7735530725633439    13.6870602629524321
4      1          6.1348065536413481     1.6410184075597329    11.6329936936460427
5      1          7.9286699457047520     2.7796756943016852    13.8019201783114589
6      1          9.3774879015023309     1.9314230604476050    11.2127044115856922
7      1         11.0403266173196801     2.8262993147423399    13.9356036021180110
8      1         12.5684516507259616     1.9811318177069224    11.1218126772840034
9      1         13.8525733373557323     2.7582639860302058    14.2262561999136352
10     1         15.7043797448341103     2.0166617048738238    11.2766136852833316
11     1         18.6267576080064146     5.3678822087756970    13.5966973496238523
12     1          4.7740042600728989     4.6073065702646954    10.9838558763757170
13     1          6.1123432565985221     5.3368463299734481    13.6790070749905333
14     1          7.6224085182815466     4.4822790219686457    11.3494600334264923
15     1          9.5794065499851477     5.6298182710279958    13.7465224040857450
16     1         10.8820299030955141     4.3701389512569637    11.3917027563973701
17     1         12.3030280603080069     5.6195885808510182    13.9068508503516046
18     1         14.1647936418608147     4.4096178876234733    10.9268288299138092
19     1         15.4141004928528478     5.3094176911919222    13.7247702347252432
20     1         17.3555895013774304     4.5385509698382744    11.3019593190658583
21     1          4.8468493941130504     8.2630908344269951    14.0345737063327007
22     1          5.8264387827458792     7.0354980738233426    11.1215155302610196
23     1          7.7318610252985582     8.0878023218578310    13.9425311568657264
24     1          9.3024544288943449     7.2725582603928780    10.9674372442582726
25     1         10.6537311138142208     8.0521264311386407    13.7430573676143339
26     1         12.6623746821586103     7.4170690092390981    11.2068244260037559
27     1         13.7818661990505369     7.9982652042618927    13.6931417041431729
28     1         15.7461284282986291     7.2605187018137674    11.2665610504040625
29     1         17.1636306153825942     8.0841759938110691    13.9016356682787183
30     1         18.5680294025131758     7.4430127856402564    11.4767422052633332
31     1         21.6839498323663697    10.9136317943309855    14.2393155597542904
32     1          7.7516664306599745    10.0740358229107763    11.2729849661297674
33     1          9.2441542125631688    11.0206647763406682    13.6753154009592190
34     1         10.8290576040788871    10.0119547546303966    10.9026138657356899
35     1         12.3567340269910044    11.0698154599159135    13.9561722197767981
36     1         13.8899965599149713     9.7596590218433406    11.4158925386243908
37     1         15.4500500574813273    10.6868809333803032    13.8307560305164969
38     1         17.0687713359729472     9.9825243995577253    11.1646144395693092
39     1         18.6463630601326571    10.8824230531632864    13.7791002942242997
40     1         20.0650084710648038     9.9235229980200597    11.1390346136415506
41     1         -0.1455850343605404     0.0362802914691712    14.1433269985498846
42     1          9.4083602469715153    12.7438605425498857    11.1700864775434212
43     1          2.9078722656369749    -0.2216740614830153    13.8843407042629803
44     1         12.5100822447816302    12.5411409205824587    10.9789806506426828
45     1          6.4630374081891730     0.0379112634692788    13.6876847753397222
46     1         15.7790164501655550    12.7546130431891225    11.1482864624758271
47     1          9.5396770206646089     0.0430003551908627    13.9534500508628465
48     1         18.5592567607850363    12.5692447835139376    11.1465942353618814
49     1         12.3447043725251380    -0.0687284852913991    13.9978836035794583
50     1         21.9051996232368289    12.8606235114430767    11.2294126361407915
ITEM: TIMESTEP energy, energy_weight, force_weight, nsims
2        -96171.5816384333738824    1    1   100
ITEM: NUMBER OF ATOMS
50        
ITEM: BOX BOUNDS xy xz yz pp pp pp
    0.0000000000000000     23.5656092161745327      7.9121697393513646
    0.0000000000000000     13.4962843021380365      0.0175747119956704
    0.0000000000000000     25.1819511003738086      0.0100694969085512
ITEM: ATOMS id type x y z
1      1          1.4852153485687833     2.7951308911210133    14.1236422673747253
2      1          3.2539465214964673     1.7196216680393752    11.0314799822967444
3      1          4.7123801078579062     2.7156275070423850    14.2363138711831283
4      1          6.4421774115998076     1.8323700619985062    10.9967339261684494
5      1          7.8887204426641357     2.8404544801476499    14.2462254871362362
6      1          9.5483558664894357     1.8333272977794399    11.5390171703345583
7      1         10.9004076666776015     2.5840181602967722    14.2597381220966959
8      1         12.7147456548146600     1.7243876277507504    11.5810508831113026
9      1         14.2659820065927700     2.9184558182306737    14.1006234458738753
10     1         15.5911082967856238     1.6725578108262629    10.9581199223511359
11     1         18.8018136706112315     5.3846284839848026    14.1406249751968183
12     1          4.7892170328550927     4.4902776110825169    11.3841657984330293
13     1          6.3414065744339894     5.2166471920427222    13.5140678134781975
14     1          7.5508352492555337     4.3776147050162804    11.4404600501179150
15     1          9.3621527771042423     5.3215165335369292    13.7683551556897736
16     1         10.8482046917505048     4.5806306157259318    11.5614442159845510
17     1         12.7196005717264935     5.3464589043339830    14.0237177672133342
18     1         14.1353347197989709     4.3459812347580691    11.1431543808415725
19     1         15.5645285335693462     5.2443772000717193    14.1202779587077156
20     1         17.1501748167358308     4.5446942777475208    11.5623910573459252
21     1          4.9344582736328615     8.1626014514516889    13.9285879105414523
22     1          6.4260470919759465     7.3730730200639814    11.6025487147656925
23     1          8.0417986635067003     8.2010400478475880    13.9863905610972488
24     1          9.3338668908854867     7.2785928413143948    11.3669539348559248
25     1         11.1917548711444788     8.0609642052982515    13.6358250652436137
26     1         12.7795702147096950     7.1923531123415358    11.0682103761717503
27     1         13.9535455755549336     8.1981297589459352    14.1584865331123115
28     1         15.9434117213595012     7.2453393630839340    11.1700436682265511
29     1         17.1420996038462121     8.0070378081528002    14.1373034758466769
30     1         18.6347766488939435     7.2197542787679465    11.4759892649254329
31     1         22.1496048880767802    10.9242359488589287    13.8820088555910885
32     1          7.6317716114652718     9.7300229598828150    11.0340485413089819
33     1          9.3663977068812052    10.6287286399085072    14.1820064754400637
34     1         10.7889206863531548     9.7907111306263062    11.3279798291378757
35     1         12.5337967988016707    10.5851390858965271    14.2543063752443437
36     1         13.9237240339398092     9.7450648698436506    11.5249203141085701
37     1         15.5869928507882420    10.6399539385082260    13.9038818983168735
38     1         17.3277972634463140    10.0194166967675447    11.5293196009658043
39     1         18.8827073573127073    10.9832593727897372    13.8103233953936542
40     1         20.2570844291100975     9.9192793049086578    10.9368588010370900
41     1         -0.2279893194018736    -0.0772507475169503    13.9450191336344442
42     1          9.4756455861649123    12.4581372021583974    11.5500317557458612
43     1          3.0929343623993804     0.1193715650632219    13.6921797536111409
44     1         12.3627249518135081    12.5782231520390742    11.5954952502624771
45     1          6.2775282108098924    -0.0573108748177569    14.1115398216758869
46     1         15.6178673356893487    12.8017172633489036    11.0302888760096973
47     1          9.6771667352421478     0.0685982305542367    13.5730540157357122
48     1         18.8173688726344182    12.5997842023419988    11.1316663747495816
49     1         12.5243550297021837     0.1103236643102966    14.2216881939840292
50     1         22.1201378048690671    12.6212985726494029    11.6674476391415762
ITEM: TIMESTEP energy, energy_weight, force_weight, nsims
3        -96171.6787629811296938    1    1   100
ITEM: NUMBER OF ATOMS
50        
ITEM: BOX BOUNDS xy xz yz pp pp pp
    0.0000000000000000     24.4306378087744918      8.2028159542626788
    0.0000000000000000     13.9916849495112547      0.0175881036197170
    0.0000000000000000     25.1819335124270900      0.0100665551593060
ITEM: ATOMS id type x y z
1      1          1.5345155593075896     2.6620831012164041    13.9091528388218091
2      1          3.2385020424505253     1.9968179335867546    11.6982168493309810
3      1          4.5656236648221045     2.6311979205133702    14.1615135855165963
4      1          6.4327893803266427     1.6954513461971301    11.1845910242514091
5      1          8.3675213797347734     2.9052456038142389    14.0590180797343152
6      1          9.7965672265292749     2.0533670331615608    11.5734151868433912
7      1         11.2922380250484071     2.9765849061892422    13.7184853110391156
8      1         13.0126158754702459     2.0115900251807091    11.3322528459815803
9      1         14.6380448297196573     2.9875712203810716    14.0741322762284753
10     1         16.2146314116983881     1.9457893764198295    11.3348591761001156
11     1         19.7593091180741922     5.7418928643573413    13.6897627976748435
12     1          4.8823296628603234     4.7108714794695032    11.3427310485161001
13     1          6.3556737206502421     5.4506387902648665    13.9970856324538531
14     1          8.3875965986903616     4.7493927834955700    10.8999092658934220
15     1          9.6587625572173437     5.5207225070490056    13.9537550794590217
16     1         11.2653188817449141     4.8663601272840085    11.6726722959759730
17     1         12.9119453880085420     5.6879964059130117    14.1966197190262733
18     1         14.7966986743088995     4.5258524804147742    11.5449822657145091
19     1         16.1838595798277467     5.7610904595588242    14.0171203787563403
20     1         17.7455662097989340     4.7108916229527509    11.2357304948284451
21     1          4.9826571462174636     8.2059931149728751    14.0729915346403622
22     1          6.7241346428099265     7.3320408780634336    11.1829541985731016
23     1          8.1926735588617703     8.4103835310971213    13.9788765763310181
24     1          9.5798547208313600     7.2681436324742803    11.4666286795905936
25     1         11.7231727008886981     8.5349324344791171    14.1273920656072587
26     1         13.2317314434544873     7.4267650289073215    11.6868144698365519
27     1         14.8207051744752949     8.3341884377180246    13.8892717023137475
28     1         16.2715816025474354     7.5204867534236648    11.4388378977662786
29     1         17.8806613619015948     8.3645438827577063    14.1724576538211000
30     1         19.4506318747035287     7.3816264172247683    11.2382386154062850
31     1         22.6872224152571462    11.1336549210049967    13.8606322893300646
32     1          7.9420155689071672    10.2323963787479837    11.5122054610547337
33     1          9.9348462928788983    11.2638501015410437    13.9824171561828656
34     1         11.7232774444001642    10.4120631856913661    11.5057462951087963
35     1         13.1610739576982425    11.1354771092230109    13.9385376370374612
36     1         14.5538231359660575    10.1440789698811358    11.4359596027658093
37     1         16.4799738621643819    11.3198179529980134    13.6732132309704753
38     1         17.9158625241815201    10.2977429504935927    11.2306084895520186
39     1         19.5695453632615930    11.2649368516225508    13.5076949001866424
40     1         21.1285395729116736    10.1681154786316359    11.0495025419239941
41     1          0.1698847897301857     0.1262826540631743    14.2367773483985403
42     1          9.8311180671135769    13.2332383719082092    11.5491649848709237
43     1          3.1524459563337208    -0.1356285479476337    13.9416425694395425
44     1         13.1109598887836469    13.2478478942240088    11.3536247529535750
45     1          6.3051468858510562    -0.1873994267079881    13.8198728117468512
46     1         16.1779766352904524    13.0436763853450373    10.9705596985558866
47     1          9.6377679544134658     0.1638809029990869    13.5589476894644854
48     1         19.5921457461472528    13.2178634016009173    11.4387824975125518
49     1         12.6429244349042076    -0.1517845929587644    14.1507835636469519
50     1         22.7296930425263319    13.0803576625705595    11.0592529865800060
ITEM: TIMESTEP energy, energy_weight, force_weight, nsims
4        -96170.7064988449419616    1    1   100
ITEM: NUMBER OF ATOMS
50        
ITEM: BOX BOUNDS xy xz yz pp pp pp
   -0.0219795569574756     23.4305845090783009      7.7309009680214036
   -0.0128109417695024     13.6643137680601168     -0.0219795569574756
    0.0000000000000000     25.1819470068173601     -0.0128109417695024
ITEM: ATOMS id type x y z
1      1          1.7694821180293105     2.7548765859553335    13.6540873147795914
2      1          3.1873733421590762     1.8896694207055373    11.2593722912457839
3      1          4.5702862995727855     2.6242287450511737    13.7492826290494623
4      1          6.1409320393333537     1.7293384065568589    11.4865411533889841
5      1          8.1570164197376709     2.9150627543024323    13.7680406613748403
6      1          9.6477833264317052     1.8953832275693390    10.9033398516845974
7      1         11.0508281092767877     2.7739092398800964    13.8616293674256781
8      1         12.6154889398058128     1.9556407629396990    11.4285169110958744
9      1         14.2010058334466134     2.5381268278214737    14.0480966486217582
10     1         15.5941171866366641     2.0100056022185329    11.0927735662380815
11     1         18.7078714352937077     5.3420822396970333    13.7365934459527264
12     1          4.5282633518434325     4.6645877015906070    11.2496067321965398
13     1          6.3923163059596959     5.5660421291114028    13.7142797227099855
14     1          7.7305671512895975     4.4443416441470669    11.1217605054376278
15     1          9.3430429536355923     5.6431801516918894    13.6224890076754370
16     1         11.2765219832531454     4.7064777060764609    11.0951633330090278
17     1         12.5465352167394624     5.2961494548924906    13.8444124702571152
18     1         13.8850650638459179     4.5792095048309340    11.2861583282769349
19     1         15.4679539092366785     5.5305830534263443    13.6636035725534679
20     1         17.4087504066417580     4.5680905533939775    11.3189779598109208
21     1          4.8510946968757338     8.3038090351158544    13.5369484518879784
22     1          5.9898983050755952     7.0835943014514777    11.5998221419991516
23     1          7.6464760207597360     8.3269903039843562    14.0638630656427264
24     1          9.3986702555170520     7.1713332336077036    11.1585941393244994
25     1         10.9885604640450669     8.2446570475655374    14.1987501647847427
26     1         12.4821430646714013     7.0686840274954301    11.0111588759889862
27     1         14.2213056616311508     8.2574164058896091    14.0813116367237505
28     1         15.4750217075315977     7.3249953137124253    11.2283506507280855
29     1         17.1835190103761875     8.3943843586184244    14.2056424636805101
30     1         18.4316910614791638     7.0894140684687166    11.2181519621903245
31     1         21.6991472695408802    11.0275188330699319    13.8711808799253635
32     1          7.6772506122158681    10.0668479951575112    11.6980443262992413
33     1          9.1639153605417807    11.1018792486291584    13.6981280218998123
34     1         10.7470351130975761    10.1923647861908204    11.6245331865969419
35     1         12.4587812457056550    11.0213093197194993    13.9526419602977168
36     1         14.2854097276712899    10.0780401579490650    10.9142939986325622
37     1         15.4231367311775820    10.7357115194946751    13.6678895399340252
38     1         17.1483144622247288    10.1930708499866327    11.5876794071524643
39     1         18.8606166467770926    11.0408307854201890    14.2602923250747047
40     1         20.5513470536945206    10.0801427892419895    11.4789437599770263
41     1          0.1562418469860931     0.0443179394325437    13.5147178290703600
42     1          9.5889698161647345    12.9283091031283295    10.9068753970443542
43     1          2.8908960062942239    -0.1530367875886393    13.5678013733607319
44     1         12.5184557995399093    12.6000369326511326    11.0586570644332447
45     1          6.2493927201412154     0.0164862800379302    13.7057833337898867
46     1         15.3493136992636199    12.7553709277083804    11.4142966656211247
47     1          9.3295886831704813    -0.2051159263249201    13.7914019536130645
48     1         18.7866469335110686    12.8534598367323643    11.0873342656846088
49     1         12.7457981007876722     0.1912612128235525    13.4852196963465740
50     1         21.8959286057553975    12.5879175335691453    11.4222793428222857
ITEM: TIMESTEP energy, energy_weight, force_weight, nsims
5        -96170.7127154244517442    1    1   100
ITEM: NUMBER OF ATOMS
50        
ITEM: BOX BOUNDS xy xz yz pp pp pp
   -0.0175836455659820     23.4543067309088400      7.7546231898519409
   -0.0102361936687680     13.6508591392654299     -0.0175836455659820
    0.0000000000000000     25.1819470068173601     -0.0102361936687680
ITEM: ATOMS id type x y z
1      1          1.3773200334739177     2.7938322862302463    13.6083543808205096
2      1          3.0013982801244494     1.9309533697503174    11.3178422540009116
3      1          4.5888290832552343     2.6830694589322430    13.7857410519259318
4      1          6.0498512163038809     1.6986227310472461    11.3275272308197348
5      1          7.6914974889837406     2.6115599036026613    13.9927945748000866
6      1          9.6894300707485410     1.9513425557812767    11.5959290129918973
7      1         11.0407938462486470     2.8751616114169525    13.7286686872296801
8      1         12.7326286250656882     1.8711874661534527    11.0384007062609619
9      1         14.1484477369993460     2.8089897871346929    13.7034011216030400
10     1         15.5926263949721218     1.9565732827278428    11.5865487377318583
11     1         18.6844293812991786     5.5030103829255657    14.0249594757118956
12     1          4.6523444562819041     4.7187639847484020    11.4872311387369699
13     1          6.4196246622465427     5.4622680233912018    13.9779573716236705
14     1          7.5548610024662208     4.4240350640027684    11.5477937212883663
15     1          9.5346506468351482     5.4552266143144132    14.1667464283337807
16     1         11.2009996211062877     4.7429866982710243    10.9114257748684853
17     1         12.6570200778607056     5.3847694271459288    14.1255689085882299
18     1         14.1686619373656146     4.5620919803730349    11.5940277759928829
19     1         15.7893030524398004     5.5034620716819429    14.0018323755808343
20     1         17.4456955738970265     4.6759268925213906    11.2706588398942387
21     1          4.7939557212811295     8.0638084338056757    14.1006664811931905
22     1          6.3574942527464771     7.4735647190156085    11.0741036707272258
23     1          7.6658854509360790     8.3093668969398351    14.0771994247775378
24     1          9.2344639421384738     7.2724431053341325    10.9450411559278855
25     1         10.8076262784928279     8.1710194932828983    14.2855120450020330
26     1         12.5373436047774884     7.3407902459367316    11.5259685278175574
27     1         13.9113528434885865     8.0627616403525781    13.7810748371455691
28     1         15.7591369745241927     7.4895619000911502    11.4307178132642715
29     1         17.0883867649268417     8.0443123400024632    13.6303583661150647
30     1         18.5305663967793421     7.1373473200263273    11.5597400369483996
31     1         21.6506657219369849    10.7633809006567844    13.9653412161732540
32     1          7.8753708222468699     9.8057334558268980    11.6349459216842597
33     1          9.3642950930014255    10.9434818498411612    13.7947989982642856
34     1         10.6484667792703309     9.8043380011924341    10.9036798079691888
35     1         12.4437395411706184    10.9323707351744179    13.8266969705378209
36     1         14.2204151334270517     9.9197477533694993    11.3001267542816173
37     1         15.6934251242723768    11.0844867911717877    13.9700250583165211
38     1         16.9366978654953648     9.9747997106171074    11.3821821286033309
39     1         19.0045182184929828    11.0665169716885021    13.7210939575700301
40     1         20.4539976945380246     9.8788132931415937    11.3764532356592802
41     1         -0.0698009430340142     0.1306332222097694    14.2322874818084220
42     1          9.5795857657399495    12.9248612592559908    11.2806560728559457
43     1          3.0861723193401125     0.0601031006134061    13.8130685008177299
44     1         12.2898205149740658    12.5180415035770203    11.6087340330448647
45     1          6.3650152126400359    -0.2221676007570696    13.9128343384693398
46     1         15.5022672816552980    12.8896559201560486    11.1222616261830645
47     1          9.7515800225945402     0.2057306237070390    14.1451453541913317
48     1         19.0043182313868293    12.8004459992504298    11.3175098523004216
49     1         12.6544773010979270    -0.1585946272713549    13.8601914782515880
50     1         21.5107308305329035    12.5196622212994697    11.3358297187478811
ITEM: TIMESTEP energy, energy_weight, force_weight, nsims
6        -96170.2902775474794907    1    1   100
ITEM: NUMBER OF ATOMS
50        
ITEM: BOX BOUNDS xy xz yz pp pp pp
   -0.0131877341744854     23.4780446524229163      7.7783611113660172
   -0.0076614455680385     13.6373417117365818     -0.0131877341744854
    0.0000000000000000     25.1819470068173636     -0.0076614455680385
ITEM: ATOMS id type x y z
1      1          1.8498442583319374     2.8365032246150021    13.5807977762109520
2      1          3.3018686010706446     1.9318116406639960    10.9447691909002138
3      1          4.9368261515412462     2.8156886483126162    14.2662780738782278
4      1          6.3015122008078723     1.9932976903289403    11.0544264973361006
5      1          7.5171859861794879     2.5079465796650853    14.0122677744204598
6      1          9.2091349789524433     1.6077930241168985    11.4898727249779871
7      1         10.9899113289674126     2.8148597259524664    13.5931721849701006
8      1         12.6892094907889046     1.6719903670291119    10.9175852791063548
9      1         13.9916454185311228     2.9131415102389990    13.5432414204449838
10     1         15.7894036320620650     1.6788815183596493    11.5803111694582714
11     1         18.6708587130992711     5.3772723209700377    14.1319550503491627
12     1          4.6804488964142177     4.5950935708624669    11.2256335186460507
13     1          6.2826280243386252     5.2725635430115299    13.5085910613636013
14     1          7.7771025524316153     4.6971676325416825    11.1093458055632688
15     1          9.5924255862059926     5.5707205953972911    13.6393709849488083
16     1         10.9449353378236172     4.3732080038409453    11.3485063108711159
17     1         12.3400716568246089     5.5605902957643139    14.0757464264352450
18     1         14.1913854835995252     4.7044410057301640    11.6094693458974643
19     1         15.7592209586201335     5.3118310743588246    14.1669428475204349
20     1         17.2566848334430922     4.3463287027737794    11.6177793884097156
21     1          4.7476417847844319     8.1901744915602634    13.5089914543210128
22     1          6.1833898451899998     7.2685436362875633    11.5957074118582391
23     1          7.8962905028250248     8.1679364258084117    14.1533118596056458
24     1          9.4910223554052102     7.3356455403649594    11.4767730761450402
25     1         10.7979336108339208     7.9956234405583064    13.7624175326082199
26     1         12.5764481441077400     7.3315482518125936    11.1919753282767402
27     1         14.2821626627720235     8.2051269761910088    13.7628330347338323
28     1         15.7665673352177649     7.1164855247324450    11.6911117362882671
29     1         17.2831471807856261     8.1882642498538960    13.8798787244215216
30     1         18.8033123261737991     7.3286423615341825    11.6260189214703455
31     1         21.9967631612593557    11.0269587748709785    13.9963427111333498
32     1          7.6072600296460617     9.9945993783697418    11.5590978972997291
33     1          9.1906394848770940    10.9100892270919942    14.1675169959121909
34     1         10.8978378163449126    10.1808513899952189    11.0704623611900423
35     1         12.5748532284321186    10.9063472595204765    13.8219829100581446
36     1         14.0835848100947452     9.8845855932269444    11.0032366354606435
37     1         15.8051374751566858    10.9408164956828156    13.8639964704443184
38     1         17.3041647229061155     9.9895545349337045    11.5648645631642886
39     1         19.0433187364453858    11.0964184803441093    13.8553086987269687
40     1         20.1412995334217619    10.0499436806381528    11.2502136171194067
41     1         -0.1357471174540237     0.0399024892385305    13.5021419647351575
42     1          9.1085242005425791    12.6843756184097760    11.3927686191249986
43     1          3.1447273161593281     0.1665963532565083    13.6358505487572543
44     1         12.3515205859780153    12.8395471784873099    11.6692588426757524
45     1          6.4101523054726330     0.0892555488974604    14.0595342889522570
46     1         15.6820867756264732    12.8585904399283777    11.5345329079945778
47     1          9.2745657403384687     0.0995903411851545    13.6950986336748954
48     1         18.7764327192249922    12.6966014686025659    11.1597726544444207
49     1         12.6815561101545846     0.1456364103563607    13.5082032593796963
50     1         22.1219294142282656    12.9011611599594307    11.0401760335249435
ITEM: TIMESTEP energy, energy_weight, force_weight, nsims
7        -96171.4929841129342094    1    1   100
ITEM: NUMBER OF ATOMS
50        
ITEM: BOX BOUNDS xy xz yz pp pp pp
   -0.0087918227829883     23.5017668742534553      7.8020833331965571
   -0.0051023971508457     13.6237928848406504     -0.0087918227829883
    0.0000000000000000     25.1819627065009009     -0.0051023971508457
ITEM: ATOMS id type x y z
1      1          1.6669633971144637     2.5823690485751798    14.0952938868225885
2      1          3.2235723737556836     1.8845331971154438    11.0593891994783586
3      1          4.7907414816931144     2.5738730347158092    13.8744782922418235
4      1          6.1128388211637086     1.9107351452223214    10.9148850246833753
5      1          7.8120195383107234     2.7142964663839231    13.7252046537102270
6      1          9.4257929105965239     2.0154568268480704    11.1652793526591960
7      1         10.9853781120638807     2.8572304044214425    13.6718340019500690
8      1         12.7880398967300177     1.8352462328636070    10.9122988371134166
9      1         14.3032954597091884     2.7556859076703426    13.7772255522693161
10     1         15.4428960234841544     1.6693745277792744    11.3526230824104797
11     1         18.9059632383738290     5.2955757273919817    14.1908292169385106
12     1          4.5708661665617107     4.5340094542923168    11.3617867986393755
13     1          6.3527694114322717     5.4202011099367962    13.5300494791273884
14     1          7.9457833575654639     4.3910859176483861    11.1284910233412688
15     1          9.5824106324133176     5.4665457964569537    13.8093375911126479
16     1         11.1231269019768408     4.6986540530752148    11.6120501804091223
17     1         12.5571100649755447     5.6211435631863642    13.5921305717877257
18     1         14.1999923005361044     4.5280245855439780    11.5699106840160635
19     1         15.9204918718431028     5.6162587054035740    13.5217620952006765
20     1         17.2346620595098692     4.4607497995798964    11.4446102739810573
21     1          4.7402864451354230     8.0363558725469293    13.5790258783952620
22     1          6.4043911943696257     7.3805564591668338    11.0866360831267929
23     1          7.8434174655842810     8.3044702982224976    13.8838459823686424
24     1          9.1732365603229660     7.2775790468825505    11.3317094623827295
25     1         10.9006386620785740     7.9993169155784329    13.8006699595490687
26     1         12.4182262030645010     7.4233640780655090    11.5692710621633186