ITEM: TIMESTEP energy, energy_weight, force_weight, nsims
1        -161569.8468164629302919    1    1   100
ITEM: NUMBER OF ATOMS
84        
ITEM: BOX BOUNDS xy xz yz pp pp pp
   -0.0464200712326330     15.5459046324974999     -0.0027827169292168
   -0.0436684461126824      3.1909834766757017     -0.0436373543034162
    0.0000000000000000     49.9999044218859012     -0.0436684461126824
ITEM: ATOMS id type x y z
1      1          0.1493355144902342    -0.0224653867844221     0.0068977178854391
2      1          0.1828322752018766     1.5858563866466289     2.5699121498837205
3      1          2.5842128275551546     1.6101608539490755     1.1519826250773297
4      1          2.6601001610186916     0.0326603910424140     4.2376021785158162
5      1          5.3896532055735289    -0.0359079305201427    -0.7278934558837243
6      1          5.2128807239974000     1.5920560934140688     3.1221228921060540
7      1          7.8560078663383308     1.5501334523916128     0.8859486682823264
8      1          7.9820975896315911    -0.0470698900462759     4.3661776919598134
9      1         10.5310087769472709    -0.0110686840983382     0.4655112320868949
10     1         10.3506996020672499     1.6235940701420164     3.3883713823849857
11     1         12.7390853327382239     1.6218249461948382     1.1576304522303160
12     1         13.0115490756892278    -0.0347108958634404     3.5305837633726100
13     1          0.0049948991584214    -0.0547153659445382     4.8688980467845910
14     1          0.1015940413638344     1.6000948806995334     8.2687220971123381
15     1          2.7887487402144613     1.5941687818536252     6.3309421851666201
16     1          2.4699022362019378     0.0077200962404983     9.4578361154043868
17     1          5.2016254890434723     0.0380439378166479     5.8807296778285663
18     1          5.2180932658206762     1.6144577419894979     8.6988663961602999
19     1          7.6933386294448036     1.5575783861201160     5.6785738431684951
20     1          7.7181250197908575     0.0380486015880376     9.1397171597286651
21     1         10.3600737825606455     0.0270483194700824     5.0015077224807207
22     1         10.1191666714231481     1.5735129383684259     8.2471303901682624
23     1         12.7475423048583014     1.6080668205950781     5.9914367284879706
24     1         12.9382625720707090     0.0183830322279283     9.9067536488865553
25     1         -0.0227607589724396    -0.0447628777988133    11.7955468607448086
26     1          0.0943993966999146     1.5989429291662653    13.5132682742556707
27     1          2.4981911188616936     1.5872881644632817    11.2136714233027437
28     1          2.5680326500136519    -0.0255310391779506    14.1207431528560701
29     1          5.0787382221045059     0.0397011312504721    11.3716644520828147
30     1          5.0311366621197982     1.6124352197968101    14.2231331445370888
31     1          7.6623167767506555     1.5557843887255256    12.5476965916266199
32     1          7.6992756104239550    -0.0038833669771979    15.0208121663160963
33     1         10.3571029601853741    -0.0472082485975052    10.6045098140497185
34     1         10.2201295490589033     1.5464102082321298    13.6168615189552451
35     1         12.9314456928893584     1.5848801038357081    12.6290669656540384
36     1         12.9930572221288703    -0.0084134435871076    15.0145362846159554
37     1          0.1389663961003584    -0.0248081546125395    17.0759045837995629
38     1         -0.2444919967457514     1.5502671471714524    19.5184258181722825
39     1          2.5922220776218179     1.6107997906294713    17.2683644377403454
40     1          2.6177297979428196     0.0246122762141700    20.4104078520424821
41     1          5.2940738747120077     0.0317727198878984    16.1835789854369878
42     1          5.3197852463836952     1.5346668318727412    19.8717562478406151
43     1          7.7581479512672225     1.5688165205789482    16.8045290541728356
44     1          7.9916816398375259     0.0150748637221328    20.0094074604090650
45     1         10.4937856628952186     0.0142136206054925    16.1821985091056213
46     1         10.5809282313126847     1.5535519968202991    19.7522237871213413
47     1         12.7064093957911766     1.5628639936951652    18.1715643963933537
48     1         12.7092449687961455    -0.0006933473466094    20.4797441412938852
49     1         -0.2085249917880052    -0.0150562086365738    21.7550399910971137
50     1          0.1796764565614796     1.5941128165969483    25.1086118659622528
51     1          2.7014957958741057     1.5832540022111488    23.7522627785861111
52     1          2.4739799269870422    -0.0034511908284144    25.7704569914243464
53     1          5.3438845077449928     0.0054488395736904    22.4881413250327249
54     1          5.1999014482197268     1.5271021946785677    25.5865225115840289
55     1          7.5943516362878389     1.5578146838705300    23.5458271563807138
56     1          7.9149019714480842    -0.0045347403812995    25.3201745275154444
57     1         10.1450754760836688    -0.0041973942507743    21.9807805176751465
58     1         10.3061963408757968     1.5770511862627823    25.6446253301479850
59     1         13.0421745078152469     1.6183115717478938    23.0276557269416955
60     1         12.8180569736808483    -0.0726118113574693    25.1272747244735655
61     1          0.1941232657364595    -0.0071184697312206    27.0095137829387610
62     1          0.0482840251980740     1.5914840041235929    29.6686858534508886
63     1          2.4737933761314519     1.5883763777875566    27.9268978249784574
64     1          2.3701021922326935    -0.0182369007243828    30.6968826583014938
65     1          5.0202405375628807     0.0018779452796057    27.2547799657352066
66     1          5.1044729126331418     1.5611010881098399    30.3547685988255118
67     1          7.6011187685743655     1.5750566466984330    28.2182311869723890
68     1          7.8985010420607997    -0.0131222981002911    30.6658872336452184
69     1         10.1818011211874797    -0.0198505656252361    27.4457956051356291
70     1         10.3884932508193142     1.6196516287272154    30.0870510205588069
71     1         12.8308714628694158     1.6162206475748229    28.1727283241130664
72     1         12.9486487909556782    -0.0389751375041345    30.9167110773477916
73     1         -0.0609461645212432    -0.0137254792000320    32.6478952442703942
74     1         -0.2314101179975048     1.5498256434798896    35.6014570016272032
75     1          2.7913060415265072     1.5625157654313973    34.0983017184445387
76     1          2.7568827448987681    -0.0735336835021764    36.3356107933064365
77     1          5.3677909998888484    -0.0512999306967785    33.8128555905349373
78     1          5.1081028813648297     1.5958772767727369    36.5833410019871366
79     1          7.8319521335100051     1.5498271980703526    33.9564500024443845
80     1          7.5251101770546960    -0.0213072168893011    36.5236245185223254
81     1         10.3423561150509880     0.0208968050070031    33.7590854155920468
82     1         10.1951426165430910     1.5619094751507299    36.0298632685372553
83     1         12.9910455820694271     1.5834452168381288    34.7870583594159513
84     1         13.1034828919144282    -0.0723895049212246    37.4739783151066277
ITEM: TIMESTEP energy, energy_weight, force_weight, nsims
2        -161562.6108641823520884    1    1   100
ITEM: NUMBER OF ATOMS
84        
ITEM: BOX BOUNDS xy xz yz pp pp pp
   -0.0371236202624042     15.5459046324974999     -0.0022230643624471
   -0.0349316477092204      3.1909834766757017     -0.0349005558999571
    0.0000000000000000     49.9999199677905324     -0.0349316477092204
ITEM: ATOMS id type x y z
1      1          0.0856283973062595     0.0112319160969794     0.7088777053372535
2      1          0.0280417027760990     1.6225198481319112     2.3883080011478111
3      1          2.6493641592794885     1.5682941781832964     0.9785711680827465
4      1          2.4109055281216096    -0.0401395257611085     3.6827843880866129
5      1          5.1745383048118088     0.0446167462952678     0.1731736046537059
6      1          5.0199420561939370     1.6386300691025681     2.1913709266728696
7      1          7.7035351882932579     1.6048068443936432     0.3195911528444204
8      1          7.6719863294320678     0.0128688998547814     4.2833895314299113
9      1         10.4051273687760855    -0.0183395036949573    -0.5489165650307072
10     1         10.2274034778364467     1.5748809779760855     3.4958402211094408
11     1         13.0458542234417578     1.6098266169994768     1.6327226253422191
12     1         12.7208080126617951    -0.0309068129998683     3.3843030191426613
13     1          0.2320117445067824     0.0438316781113267     5.1001122863837267
14     1          0.1172347760145901     1.5577587186138528     8.0279424623928275
15     1          2.5636860150784053     1.6098732547133743     6.2160641682943165
16     1          2.7781464332550985     0.0428243034911409     9.5470291886428775
17     1          5.4262125094977733    -0.0491716963525896     5.7283549389826787
18     1          5.2451415852907584     1.6145587903696093     8.3783564803520996
19     1          7.6755976430781967     1.5836146671986229     6.2458221389418433
20     1          7.5906486018043786    -0.0178793449178354     8.6916670877249906
21     1         10.1115880429148035    -0.0076936682026230     5.6639513652711688
22     1         10.1353934866785469     1.6370117404303253     8.5275380903864715
23     1         13.1508776913675227     1.6024174388516286     6.7397963678203787
24     1         13.1655561345215268    -0.0041678570319726     8.9519210771776319
25     1          0.0727797071275003    -0.0012374540087468    11.0595726436331141
26     1          0.1910296307145925     1.6108262186673463    13.4003257225101162
27     1          2.8040365828300593     1.5794996662424008    12.0157281718262627
28     1          2.4614716921197344    -0.0308772757810665    15.3039854829684270
29     1          5.1428666333040214     0.0367194267419591    11.4590697462885700
30     1          5.3107795038300898     1.6324863275918051    13.0469300000423303
31     1          7.8423849901088740     1.5897071072240985    11.4709219439803860
32     1          7.7732756710651065     0.0191401177835309    14.0176738051426124
33     1         10.3398034775103334     0.0346456030639839    11.0601602788282207
34     1         10.1152599855890006     1.5674127253906340    14.6125798198476353
35     1         12.8135781985562254     1.6220099424599650    12.6776976645254180
36     1         12.9913689368857810    -0.0468196009816927    14.1750030237948774
37     1          0.0496240821773953     0.0386922020398230    16.3145019304804926
38     1          0.1836795270043477     1.5570078514201033    19.8394129932527044
39     1          2.3592884609703284     1.5981702977060304    17.7538754761369511
40     1          2.7514323507346146     0.0223658929947742    20.8643327214067789
41     1          4.9709009454402597    -0.0219881275122045    16.4820261533907484
42     1          5.1112105077008669     1.5848412390741269    19.1376848494559333
43     1          7.9123555522692808     1.6054644361595982    18.2791747028499678
44     1          7.5842265886006937    -0.0392829464158579    21.0579072167097081
45     1         10.3190217121976104    -0.0410847167627644    17.2043837126348400
46     1         10.1078725717076363     1.5809998460394368    20.1166260100689378
47     1         13.0114760099374553     1.6336258424013670    17.6046270187126552
48     1         12.9382750087944132    -0.0365981686858256    20.7408640376345552
49     1          0.0610347761776484    -0.0262290502959498    21.4415381690972389
50     1         -0.1749458377818106     1.5584784939983376    24.2116706885142854
51     1          2.7565049794161980     1.6115693129087798    23.1047603047379546
52     1          2.4912016801389223    -0.0022945755237566    26.4988976631511370
53     1          5.3053866295130758    -0.0472953056634471    22.8807920112880296
54     1          5.2713488713202237     1.5369722895297406    24.1054175395320947
55     1          7.7756402031597096     1.5611321799191049    22.3981787295149246
56     1          7.7309566094745206    -0.0200371164808260    25.5883709196448308
57     1         10.5745746200893826    -0.0352596662969676    22.8159049599424506
58     1         10.2828308462131552     1.5747395102439299    25.6444387792923969
59     1         12.9931800347754702     1.6156485582843469    23.7176249484744446
60     1         12.8022498978505244    -0.0227949599626311    26.1786411455884434
61     1         -0.0953181596636952    -0.0613534672226146    27.3027903830117538
62     1          0.1841070393817414     1.6084663503441332    30.7168420452591633
63     1          2.4471756782196898     1.5505127724646457    28.1574420360879323
64     1          2.7478350284026543    -0.0284132498968157    31.5169415643894446
65     1          4.9414989760088170     0.0275349062850796    27.6596590605744339
66     1          5.2084781238054765     1.6062899236955837    30.1106155028007549
67     1          7.6043056790240273     1.5627893733529292    27.9572341032783136
68     1          7.9944783480809116    -0.0696021242206178    31.6685421171846357
69     1         10.3478376010244073    -0.0515704294373840    28.2518460965592375
70     1         10.5407529499709227     1.5667675703483854    30.8371393644863510
71     1         13.1081917464276110     1.5861253307967709    28.7515349999806773
72     1         13.1371926315195342    -0.0099897983168429    30.9127064523144561
73     1          0.1305265244753755     0.0191245718788984    32.7943563209940834
74     1         -0.2655722434274180     1.5726268218043737    36.1164321930737771
75     1          2.4779456872587917     1.5232856750912898    34.1651584359070526
76     1          2.4006234667976756    -0.0747400457016582    37.5310675406885466
77     1          5.4074890219583933    -0.0721811897991491    33.2238057181049697
78     1          5.2454214115741440     1.6215047005594090    35.5543917753523218
79     1          7.8775669268826789     1.6001353000515779    34.5007758618371199
80     1          7.7998140848632422     0.0117993416160656    36.5507490129251096
81     1         10.2875552466309710    -0.0015141711112053    32.5589493509155616
82     1         10.3726566377701879     1.6011364563099106    35.3128799285246160
83     1         13.0587386692011727     1.5521513108129112    33.5468807081775324
84     1         13.0620825932876254    -0.0055156869636101    37.2802436969859841
ITEM: TIMESTEP energy, energy_weight, force_weight, nsims
3        -161573.2708482073212508    1    1   100
ITEM: NUMBER OF ATOMS
84        
ITEM: BOX BOUNDS xy xz yz pp pp pp
   -0.0278427151967953     15.5459046324974999     -0.0016634117956767
   -0.0261948493057544      3.1909834766757017     -0.0261793034011185
    0.0000000000000000     49.9999355136951635     -0.0261948493057544
ITEM: ATOMS id type x y z
1      1         -0.0831472709269129    -0.0434881136189485     0.3269863396780994
2      1          0.0747027355305402     1.5571866293233771     2.4874784359794395
3      1          2.5719828643807694     1.5988589812812497     0.3991364376679836
4      1          2.4001975090107455     0.0126699122754855     4.3438833101263485
5      1          5.2753379504489217    -0.0002238610267080     0.3123576434189193
6      1          5.3635920510476103     1.5538349322846106     2.4656830776846776
7      1          7.9642291268469991     1.5542189161290332     1.5709292090185050
8      1          7.5247464028862945     0.0301575003965819     3.6973757741746751
9      1         10.4006299385659062     0.0179710657551671    -0.6176698828583908
10     1         10.1965790581311317     1.6438270650212123     3.2222043169491461
11     1         12.9146561158862578     1.6017831659426225     0.5643489845593874
12     1         12.9541116218435377     0.0136912782098405     4.0241071610168015
13     1         -0.0874628140528942     0.0386968658112128     4.8746609136318577
14     1         -0.1997602107562031     1.6340875557689525     8.0415124825465334
15     1          2.6137718106233856     1.5825886374928779     6.6066798956332287
16     1          2.3864969032581258     0.0112661170871709     9.2904269321884119
17     1          4.9436940577429267    -0.0098452214037607     4.8885402972877516
18     1          5.2025116056075236     1.6088130240174379     9.0541291817744511
19     1          7.5463132363829581     1.5591283128119759     6.4671025454808131
20     1          8.0057973212438345    -0.0413769797698553     9.0288608683847897
21     1         10.3508659432468182     0.0259196867937631     6.2131399836329440
22     1         10.3719119889382920     1.5806267443282567     8.6138909268486064
23     1         13.1469088219148471     1.5819994477073063     6.3038736560205155
24     1         13.1629195490958555    -0.0015188348825950     9.3661805708721086
25     1         -0.1338004919909795    -0.0082844125786579    10.4149228432850247
26     1          0.2009323719654934     1.6284832571489372    13.3880786588406320
27     1          2.8070353878336682     1.6278412112876151    11.9422426806284463
28     1          2.4717459804913515    -0.0316250337938897    14.0183469428131993
29     1          5.1986158019066204    -0.0056058532104786    10.7471963451286356
30     1          5.2217139070095850     1.6395876968279302    13.2168731657134018
31     1          7.8525224745197244     1.5935516094397151    11.9064124796314648
32     1          7.7320137309895305    -0.0128688998547814    15.3686175814780341
33     1         10.3380918734102956     0.0063971397562727    11.4328375868116936
34     1         10.5776729188826391     1.5871311508264936    14.3327597548245347
35     1         13.1696680262968222     1.5825808645405617    11.6668050061212458
36     1         12.9673847152187669     0.0320649828949893    14.2615159830747267
37     1         -0.1971904727204513    -0.0071946446639198    17.1909971341558006
38     1         -0.2441997337386605     1.5871933344450238    19.2199444492283327
39     1          2.4706375574910546     1.6246169906668351    16.8344424838666882
40     1          2.6107667872579241     0.0175668722347222    20.2722545067544040
41     1          5.0536611233418238     0.0029257392518360    16.7140814264305000
42     1          4.9385017255956720     1.5530731829576183    19.6883549925291845
43     1          7.5516408179005143     1.5677205343023575    17.7451884246283065
44     1          7.6622779119890732     0.0055871981249196    20.5368629040946082
45     1         10.3786418110536989     0.0225602168026804    16.1318904071243985
46     1         10.4156550553932128     1.5720842697326993    18.7342033314431688
47     1         12.9496748206614232     1.5406395684325467    17.9569656196654321
48     1         12.8465308526057278    -0.0530970372722952    20.6019100782579052
49     1         -0.1574862322890527     0.0332791180467874    21.8056667841233036
50     1         -0.2556135369198401     1.6226986260351848    24.8178832396585278
51     1          2.5338922888502240     1.5895858491679651    23.3094407943103477
52     1          2.3798805662465345     0.0004959143577767    25.0871833910168149
53     1          5.2408089416696821    -0.0436715552936120    22.7167998179102781
54     1          5.3448063798897012     1.5579172868411044    24.6234490558294183
55     1          7.9896140345214048     1.5805909887476020    22.6762047971434342
56     1          7.9958557152313512    -0.0173647754744997    26.0931790894617528
57     1         10.4906593814736251     0.0173538933412570    22.4106838552013024
58     1         10.4270579764411497     1.6205253085675615    24.5441229682611741
59     1         12.7074587443538700     1.5466729340204191    22.5085577615865837
60     1         12.7496689846120272    -0.0312301678162242    26.0848480391691986
61     1          0.1263524490815499    -0.0248003816602233    27.5591221407256164
62     1          0.2088125910237064     1.6034170405194983    30.9794310295876016
63     1          2.3559460914743413     1.5726174942615943    28.7184735245987461
64     1          2.4046187642882275    -0.0628349919340916    31.2585593018545573
65     1          5.0064109008018107    -0.0450598045772940    27.1920833323523432
66     1          5.1046423629936362     1.6176322157154539    30.6255471657143588
67     1          7.6833317306328643     1.5583556813517407    28.5505917458819418
68     1          7.7863388947277921    -0.0090554894484298    31.0864179452684510
69     1         10.1972397590780126     0.0239655665814581    28.1459644946977612
70     1         10.4906453901594556     1.5590459195174238    30.6273069621187517
71     1         12.8519283906941322     1.5296517230382976    28.5939663743970733
72     1         12.7858458592823112     0.0184763076557233    31.2871559934260368
73     1          0.0213212082034703     0.0071138059598309    32.3950084590230958
74     1         -0.2095727857602356     1.6268633738862310    35.7487653301533612
75     1          2.3704799577152631     1.5664317788083233    33.8721336794891030
76     1          2.6592451362639045    -0.0029785953275865    36.3120245467980141
77     1          5.2298413059514557    -0.0348958921285671    33.9538616093230772
78     1          5.1741216745676564     1.6262835116434387    35.8874596729226525
79     1          7.5911118697624262     1.6081554322514833    33.5648377826185325
80     1          7.9119264853014251    -0.0096850985860459    36.3439045334278745
81     1         10.2466912817139857    -0.0056960194573471    32.6262102618985210
82     1         10.2228718466360746     1.5640765742564999    35.1761319330153199
83     1         13.0154448793901327     1.5695052041541682    34.4378584766084757
84     1         12.6935669239742683    -0.0582505046579681    36.1691157092828490
ITEM: TIMESTEP energy, energy_weight, force_weight, nsims
4        -161564.4338992853881791    1    1   100
ITEM: NUMBER OF ATOMS
84        
ITEM: BOX BOUNDS xy xz yz pp pp pp
   -0.0185773560358351     15.5459046324974999     -0.0011193051335397
   -0.0174580509022919      3.1909834766757017     -0.0174580509022953
    0.0000000000000000     49.9999355136951564     -0.0174580509022919
ITEM: ATOMS id type x y z
1      1          0.1922126740571256    -0.0426797265780586    -0.6030209769231883
2      1         -0.1910902597426593     1.5937987893233718     1.9819831371777610
3      1          2.3664395771012767     1.5656840207955001     0.9418688418358833
4      1          2.6893140250040810    -0.0077076595167923     3.9732642799162186
5      1          5.1214179486825646     0.0081242897609432     0.4905479114975321
6      1          5.0891353231227194     1.5448291897310047     3.3417771970204644
7      1          7.7822099024574012     1.5504490342556527     0.9957167463019281
8      1          7.5449560789085410     0.0103380265806108     4.1977253785429971
9      1         10.5229124698146670     0.0180690049543518     0.0766257639335802
10     1         10.1619365642480748     1.6073936829244910     2.2324136694931265
11     1         13.1969712986028771     1.6003063050025355     1.5338988641838958
12     1         12.9942387108809392     0.0139773228550785     4.3174972461936116
13     1          0.2336533920359742    -0.0144234903180312     5.0305396993819107
14     1         -0.1949658537675409     1.5965006675485001     8.5425305608140523
15     1          2.4491049249845824     1.5440829863086447     7.1360288305030108
16     1          2.5848393275118449    -0.0273265911630041     8.6327652096629226
17     1          5.0416721216892419    -0.0074371607761868     5.5753070624662033
18     1          4.9993592784605108     1.5955927867179622     8.8675068150231713
19     1          7.6271068573485117     1.5462951685378492     6.6892939420312461
20     1          7.5237981027037124     0.0145696218215767     9.7013502747487550
21     1         10.4117732430064791    -0.0326308538236123     5.4901512606607721
22     1         10.1523913788037223     1.5810946760576949     8.9412643595520542
23     1         13.0096928946761050     1.5731755922379007     7.1249150632812395
24     1         12.7512546668845417     0.0198023733208753     9.8745098880882924
25     1          0.0150064617417498     0.0249838233348867    11.8397065574438809
26     1         -0.0592843073160292     1.6237946123117759    13.3996246022111887
27     1          2.4472705082379478     1.6167880730939093    12.2647657910865533
28     1          2.4262244625464726    -0.0557118584314813    15.0198747482667549
29     1          5.1656460473620198     0.0395907553275814    11.7642265266817159
30     1          5.2886188167764647     1.5653047007224672    14.3469485019826148
31     1          7.5922498299815251     1.6283448985977080    12.3195666595065720
32     1          7.9221152711975638     0.0358519652634657    14.0977492053141447
33     1         10.4905847611313892    -0.0221746783677944    11.1417140945303039
34     1         10.4302402231194229     1.6125751329385023    14.3737418686167242
35     1         13.1709552272003947     1.5609565111967576    12.6125541057533983
36     1         13.1443966037262356    -0.0493706839318856    13.9917354632632893
37     1         -0.2161658039148777    -0.0094239273882200    16.2232008325738342
38     1          0.1013546344324939     1.6040186670287757    19.4539989256038233
39     1          2.8147990126071374     1.5628779850093344    18.1036754308632410
40     1          2.4524504036614960    -0.0303937981469959    20.1463730985832186
41     1          5.0871065825681789     0.0008052778599634    16.9361002634395135
42     1          5.2009787794107600     1.6025480244505412    19.6481610561018698
43     1          7.8590735187318588     1.6161164900137854    17.3637898641460069
44     1          7.9576687550920839     0.0068883903426596    20.4695957747497914
45     1         10.2004235603467492    -0.0537421923145439    15.9443508319998006
46     1         10.2187039896041032     1.6051162078958301    18.5774757393001835
47     1         12.7108570791065336     1.5423076439996137    17.0371408705984351
48     1         12.9677189521683633    -0.0206853807040012    20.0850507231698678
49     1          0.0276483913888968    -0.0266083703689827    22.1684879885697761
50     1         -0.0144639096700757     1.6227297178444497    24.6229593598334944
51     1          2.4697529955174655     1.5760593575472290    23.2634777726739017
52     1          2.7705833506513882     0.0010773311910321    25.0752736734778630
53     1          5.4058442652482750     0.0136322037722371    21.4580961121213143
54     1          5.1171366065467749     1.5987781425771608    24.5828524804721127
55     1          7.6274177754411605     1.5635153670992668    23.1795252238870262
56     1          7.6168916434144966    -0.0374345383550540    26.0111837700681079
57     1         10.1730534406507722    -0.0329464356876520    22.4500320944166205
58     1         10.3657900116940151     1.5883297400736593    25.3109791249253249
59     1         13.0388881035759372     1.5861875144153013    23.3407533554211213
60     1         12.7391848265278718     0.0355923486561030    26.1237563292834132
61     1          0.1469274538626604    -0.0459941134457071    27.0460109032444720
62     1          0.1423849405290446     1.5484607130531562    29.9148754629825113
63     1          2.8056689028164721     1.5730807622196423    27.9120468222830347
64     1          2.7759140413498713    -0.0387295122109410    30.6557886139959521
65     1          5.3876337925617674     0.0247428618130830    27.3530876028597305
66     1          5.1343070582133681     1.6161848919941681    29.9847511951246624
67     1          7.7698353623699346     1.6155599466279418    28.6685649523665731
68     1          7.8739556132365500    -0.0203946722873735    32.0419951658092685
69     1         10.4700874858734405    -0.0500733588212744    27.6244444774009068
70     1         10.3378991041928501     1.5712587821967137    30.7710708243887012
71     1         12.7063316662680137     1.6248299695603003    28.1890266505297795
72     1         12.7932939021917420    -0.0179290918126594    31.5753382005509557
73     1          0.0223363557759724     0.0338838537369915    33.7742053624376197
74     1          0.2080648330108833     1.5496561931193951    35.3271557327486434
75     1          2.5804476094531643     1.5676070491985401    34.4224509305271980
76     1          2.6582610805006670    -0.0269021879665369    36.2625403777623063
77     1          4.9763606671471932    -0.0042564686883778    33.1228754868689421
78     1          5.2446643260185413     1.5920405475094366    36.3369399681525138
79     1          7.8021926082720130     1.5497743419946022    33.8937176134808738
80     1          7.5962777738718055    -0.0026303670638186    36.6081491565996728
81     1         10.2329145010286684    -0.0423314983142907    33.8383477649513011
82     1         10.5621891978686726     1.5627940371243190    35.2047068603203144
83     1         12.8260895426044588     1.5378599606842562    33.7389503599120388
84     1         13.1551963436744295     0.0273576829722691    36.1998515173317585
ITEM: TIMESTEP energy, energy_weight, force_weight, nsims
5        -161574.1705509788007475    1    1   100
ITEM: NUMBER OF ATOMS
84        
ITEM: BOX BOUNDS xy xz yz pp pp pp
   -0.0092809050656001     15.5459046324974999     -0.0005596525667695
   -0.0087212524988278      3.1909834766757017     -0.0087212524988306
    0.0000000000000000     49.9999510595997947     -0.0087212524988278
ITEM: ATOMS id type x y z