ITEM: TIMESTEP energy, energy_weight, force_weight, nsims
1        -96146.1038142254255945    1    1   100
ITEM: NUMBER OF ATOMS
50        
ITEM: BOX BOUNDS xy xz yz pp pp pp
   -1.5954958645974464     15.9549586459745019      0.0000000000000016
    0.0000000000000000     25.9098476786678873     -1.5954958645974464
    0.0000000000000000     22.7634660138471361      0.0000000000000015
ITEM: ATOMS id type x y z
1      1          3.3314633334033092     0.3581492334774591    12.0088300740594356
2      1          3.3486664484641575     2.2121542939722185    10.4177935514477991
3      1          6.3572379557282410     0.3962315275955652    11.9810859616817567
4      1          6.3421956207168160     2.4125151460713572    10.2574135516472396
5      1          9.3490116038810829    -0.2465969752817208    11.9864535869678210
6      1          9.4205565103421893     2.6611201345481756    10.7486263847600458
7      1         12.7604132688403844    -0.4086863913746992    12.4605915442236430
8      1         12.7958690161418129     2.2943584677023279    10.4886971953877293
9      1          0.1048968329154801    -0.2954474020950813    12.2378533056247516
10     1          0.1088220718415625     2.7155074958104675    10.4896828534661299
11     1          3.4363443709097279     5.5578048312364947    12.2630592915418841
12     1          3.3315606586510502     7.5535833962593895    10.7968120896181574
13     1          6.6098470721848424     5.0506117899722680    12.1465444907500082
14     1          6.5496788489862494     7.7562398608628582    10.6628741319392830
15     1          9.5071727898394567     5.3761197973441401    12.6116567337313388
16     1          9.3307918388553137     8.1579590941967641    10.6452643146309693
17     1         12.6366169896608174     5.2026585491049948    12.1060300739385625
18     1         12.8904271954042891     7.6030997061580914    10.2002909100320895
19     1          0.0040594201282975     5.0272022425945915    12.2837057552164435
20     1          0.0328458351661240     7.9555928198872978    10.5312307316346025
21     1          3.1019893856321308    10.3559614293668929    12.4110627948707162
22     1          3.1745501443102260    13.1130542307016231    10.6592888860421020
23     1          6.6422474449055704    10.0214704778048276    12.1230207249712958
24     1          6.6386746510159762    12.6271487202901866    10.4052053547421401
25     1          9.7539109601630987    10.7148257746402820    12.2449441252880646
26     1          9.3793351196348613    12.9987840294843942    10.3393643056436897
27     1         12.8621904286918145     9.9636422887708083    12.5641812490128579
28     1         12.7413662392088192    12.9506513054517303    10.5556991812528871
29     1         -0.1875714398792538    10.2235543347745956    12.3950964998086022
30     1         -0.2083111310735699    13.2806961271521384    10.3099607365936041
31     1          2.9440104053014959    15.6546418739690285    12.3976460080021536
32     1          3.1969376636334976    17.8937450005118315    10.6726806330980484
33     1          6.3669057033701835    15.5671132265409540    12.4632525934006608
34     1          6.5657593731567676    18.0729867357680867    10.3407551534171365
35     1          9.6608528661125206    15.7509332318820316    12.1784861862606366
36     1          9.6069062790379238    18.2138689415360737    10.2620254298616445
37     1         12.7864023009788124    15.4041247387335272    12.5857906072998009
38     1         12.9357477340869380    18.3597310200279047    10.3686654390967146
39     1         -0.0092087234816941    15.8188947623431773    12.2999133430183019
40     1          0.1891385359174669    17.9184629951972809    10.7018725019142042
41     1          3.0643750919754873    20.5692502824912005    12.0092489218340894
42     1          3.1602505126237719    23.0900763648136937    10.2102909006519731
43     1          6.3165847210982990    20.8965745701853507    11.9563648375907210
44     1          6.4600051207636557    23.1847302203534014    10.1908804931819663
45     1          9.4062305529739696    20.8103932348365639    12.5919208086973313
46     1          9.4386357121822879    23.4119777213886948    10.1167717532272849
47     1         12.7910555646679125    20.5421952195451354    12.0389097180501317
48     1         12.7370035153166654    23.1694304552991497    10.5486516121750000
49     1         -0.1706149884790709    20.5569197859809236    12.5125400500138433
50     1          0.0083506658057197    23.3076802205429878    10.5685104599254807
ITEM: TIMESTEP energy, energy_weight, force_weight, nsims
2        -96146.7867114227701677    1    1   100
ITEM: NUMBER OF ATOMS
50        
ITEM: BOX BOUNDS xy xz yz pp pp pp
   -1.5954958645974464     15.9549586459745019      0.0000000000000016
    0.0000000000000000     25.9098476786678873     -1.5954958645974464
    0.0000000000000000     22.7634660138471361      0.0000000000000015
ITEM: ATOMS id type x y z
1      1          3.2887437720791266    -0.1432633207696575    12.3104710385555247
2      1          3.2453263408637683     2.8279562347358862    10.6919544597719725
3      1          6.1451046547614387     0.1739587173145770    12.5680328274623996
4      1          6.4958528813990162     2.9225815894431491    10.3091571862433149
5      1          9.6707861042663303    -0.0518274683116385    12.6093803871299528
6      1          9.5127498456341559     2.9011152806413727    10.5204567831702498
7      1         13.0114058288869767    -0.0376884644333895    12.0353882098577891
8      1         12.5223238029499662     2.6643433195994022    10.7045039585854056
9      1         -0.1300793418943500     0.2233895247159396    12.5360023544343164
10     1         -0.0810559764091425     2.4848761686683409    10.5634546941238057
11     1          3.1505065002795010     5.5364214339472904    12.5873248649091352
12     1          3.3028170029023944     7.9481955583750379    10.6113922772023646
13     1          6.2338900108866264     4.9956492300915096    12.5187385418094141
14     1          6.1651876398578871     7.6827051221660314    10.2464256266023543
15     1          9.5688211545516371     5.4920948665386256    12.5998197314041356
16     1          9.6341761752564494     8.1657216845612925    10.2379234720461820
17     1         12.9940115734215489     5.3652894810144574    12.2831025233670754
18     1         12.6935951784277350     7.4076176783768455    10.6513102912042488
19     1         -0.1669815657466243     5.2504725820112084    11.9853996384913817
20     1          0.1678785535217052     7.8060593159794003    10.1934049615629014
21     1          3.3277643357908278    10.5909870666753214    11.9953176806336135
22     1          3.1071686843077870    13.0532828030917027    10.7030470967605194
23     1          6.5614137210703642    10.0100779177805155    12.1440928654603155
24     1          6.1507637190435807    12.8103676171651202    10.7956944034368778
25     1          9.3880979020224036    10.1668765429775103    12.1666514602800397
26     1          9.3813794284861718    13.1656900862608346    10.3543586007070108
27     1         12.7522164088360128    10.4037391884863570    11.9888528562856820
28     1         12.7600182240643107    13.3195505347310696    10.1826196313655419
29     1          0.2439482862548099    10.5670800502222146    12.3489504015053306
30     1          0.0321131834651011    13.1186611217392866    10.5575953779718397
31     1          3.4560964501638587    15.6877287494546866    11.9655658305535173
32     1          3.2187913300404758    18.0235896111687062    10.4377366240225307
33     1          6.3863831977860164    15.3088671837429029    12.1434076851332975
34     1          6.4045314845970527    17.8761625778770856    10.6313285207372932
35     1          9.5761380985866822    15.4760504758895099    12.3925356098820458
36     1          9.5717922869506893    18.3248770929305600    10.6928741037989319
37     1         12.6773630821500820    15.3240166716806190    12.6492984011318335
38     1         12.8810938636955665    18.0887243772481092    10.5428309939152598
39     1          0.0156203831631713    15.9225419260121530    12.4830226636336885
40     1         -0.1356638965196131    17.8074367069094173    10.6001789938439437
41     1          3.2358771761552774    20.8261438312404259    12.1902321347237823
42     1          2.9757772066143908    23.4369599965204678    10.3077026007650296
43     1          6.3244114260620821    20.6760947213637252    12.5006051647827849
44     1          6.2505508169030994    23.2447141087142874    10.4253555748575994
45     1          9.6341249598392000    21.1191582986384816    12.3450487434305582
46     1          9.3492558742979543    23.1692179945481840    10.1110376361383985
47     1         12.9554136565643816    20.8912811883045961    12.2619962376790372
48     1         12.8994063270310697    23.6730712564466330    10.6453212232960048
49     1         -0.2597534278390928    21.1275504983016020    12.4425150758620475
50     1          0.0997022174795248    23.4098453409247398    10.8151321270661018
ITEM: TIMESTEP energy, energy_weight, force_weight, nsims
3        -96145.8737928925111191    1    1   100
ITEM: NUMBER OF ATOMS
50        
ITEM: BOX BOUNDS xy xz yz pp pp pp
   -1.5954958645974464     15.9549586459745019      0.0000000000000016
    0.0000000000000000     25.9098476786678873     -1.5954958645974464
    0.0000000000000000     22.7634660138471361      0.0000000000000015
ITEM: ATOMS id type x y z
1      1          3.2144574846234688     0.2715999782916369    12.0248578304797853
2      1          3.1332789741319234     2.9760051043717946    10.3328448489773237
3      1          6.1920347296722955     0.3723193291729226    12.0005601068566037
4      1          6.3514033869009943     2.7916591291228401    10.6720250452768486
5      1          9.5033108920991953    -0.2939213120668077    12.2483404344173294
6      1          9.4795975157124435     2.7254309674713975    10.5399354810382970
7      1         12.5501929674152350     0.0010804406482013    12.6222030475355513
8      1         12.7687074540924943     2.6022995983480639    10.7442603519785909
9      1          0.2436523217719266     0.0831861569571319    11.9469817368998115
10     1          0.0099705727570443     2.9698670614567182    10.6529333263310360
11     1          3.2294430199821140     4.8596769404586286    11.9979878351970406
12     1          3.0077962558234770     7.7866709769614539    10.8156147125455959
13     1          6.2631124749442462     4.8977773714701094    12.3172226825752311
14     1          6.5390801295073153     7.7441347800273839    10.3534480620664571
15     1          9.3815743980808239     5.4529139948789442    12.1956680504078889
16     1          9.5962271465674114     8.0940602278516334    10.3416816264838989
17     1         12.8371505570432358     4.9192384983023505    12.5242108790391438
18     1         12.5440461600472872     8.0022564555565765    10.5499218135785728
19     1         -0.0589302779572503     5.4644723779283977    12.5557906354401521
20     1          0.0009525110311669     7.5076815101118619    10.4708073874474472
21     1          3.2046758185767952    10.3601510517365334    12.1435647530487945
22     1          3.4291783607834754    12.5426437520862120    10.5810076027670839
23     1          6.3895205808541613    10.4297759944186499    12.2114158161962685
24     1          6.2095489664267420    12.9628470707540817    10.8022161364498448
25     1          9.6967087637767904    10.7077860690259890    12.3036351697115656
26     1          9.7080750763161827    13.0826982531612934    10.6420614949628209
27     1         12.6659278441893353    10.4491461965432215    12.3817867012303058
28     1         12.7387687719412543    13.0952178915596260    10.4204159027325929
29     1         -0.1684041098594989    10.4762012594892866    12.1537946546754174
30     1         -0.2196091563899574    12.6245370076441770    10.3270606522632065
31     1          3.0528730027380169    15.5605347162153382    12.2193807529545140
32     1          3.2999510136808183    18.4571028185891031    10.1481853363263941
33     1          6.5188573789731299    15.2269350634134195    12.4134939330409946
34     1          6.2431097432897893    18.4020573471957753    10.8048635275472567
35     1          9.5960044153447175    15.1764523161963041    11.9524609031693458
36     1          9.5897826196711318    18.0181511341409539    10.2296671629229596
37     1         12.7704854746840031    15.1633030684993795    11.9881153199868322
38     1         12.7541041995430060    18.3262321779641546    10.5217429190000313
39     1          0.0800259242789629    15.2204912842957345    12.5089252116108458
40     1          0.1356549617427769    18.2498577199617458    10.2389683151362174
41     1          3.2437542987883812    20.4189498470920192    12.4283357128820224
42     1          3.3085950911760356    23.3390129993407989    10.6813330265299111
43     1          6.4668245891881178    21.1364427580249199    12.0105418867036757
44     1          6.4568410929145736    23.0234129177212488    10.4970513874148121
45     1          9.5633098331865583    20.9743947976882268    12.0829365376675142
46     1          9.6608536638604523    23.6216039350177240    10.2353625821196239
47     1         12.9792087223394024    20.8124349308336427    12.1137855868094793
48     1         12.5388706905617049    22.9496294444867068    10.1134505635358654
49     1          0.0724544986535161    20.3989422627145487    11.9689644160293849
50     1          0.1602072498551352    23.2623198502119415    10.7341078461364141
ITEM: TIMESTEP energy, energy_weight, force_weight, nsims
4        -96146.9955263704468962    1    1   100
ITEM: NUMBER OF ATOMS
50        
ITEM: BOX BOUNDS xy xz yz pp pp pp
   -1.5954958645974464     15.9549586459745019      0.0000000000000016
    0.0000000000000000     25.9098476786678873     -1.5954958645974464
    0.0000000000000000     22.7634660138471361      0.0000000000000015
ITEM: ATOMS id type x y z
1      1          3.4240089541821792    -0.3563303621704150    12.2946413242894952
2      1          3.0286214655961348     2.8180508999683314    10.3220230972343412
3      1          6.4820012649513412     0.3338691152177795    12.3100362563546604
4      1          6.4490405540829681     2.3331014629362401    10.2639330083136038
5      1          9.5670270194518956     0.1797677051641344    12.4956654926577784
6      1          9.5372710215771530     2.5667046496071100    10.1547161747257686
7      1         12.8976374007659889    -0.1750132481150971    12.5856950007425450
8      1         12.8139563550108235     2.7707965197719768    10.6926464691387935
9      1         -0.1279458448242102    -0.1563788856645992    12.5940901670084511
10     1         -0.1056920280543918     2.4862623455191497    10.2697832190791623
11     1          3.4075729535330286     5.0865306118092057    12.1989778583663018
12     1          2.9566274270491451     7.8314431937501920    10.7426077243459837
13     1          6.4044529862005151     4.8333628991561737    12.5439194879139322
14     1          6.2299419563696805     7.7879172406347976    10.6102609329414772
15     1          9.6533908915033830     4.9482912105044399    12.4139947292932984
16     1          9.6620906518042737     7.7644481006074599    10.7207411388930840
17     1         12.8533006448334497     5.5103120804414969    12.2877371650474938
18     1         12.5305640604418507     7.5474583082681530    10.3366759403074546
19     1         -0.2204163177478572     4.8041054991574219    12.4085724716887995
20     1         -0.1758574687909664     7.4115274743915567    10.3624350784487245
21     1          2.9403032706601033    10.4419665777514634    12.3655153757236071
22     1          3.1387859876581690    13.0350422703259206    10.4956582632947644
23     1          6.3782439351823603    10.3171847513309984    11.9726225050178101
24     1          6.4844521061489502    13.0826075686944208    10.4699947317107522
25     1          9.7216943885659735    10.0140239875819770    12.1593352823031875
26     1          9.4549084936044920    12.7266347624219680    10.5211829377360910
27     1         12.6579841893786789    10.6971941232949490    12.2613634133238509
28     1         12.8650503550291049    13.3601590389978444    10.2904410644867301
29     1         -0.1171015785317138    10.3555131890020515    12.1921146733631272
30     1         -0.1154805547332829    12.5447683595958619    10.7642535041785532
31     1          3.4170281811258070    15.4703710372783423    12.5590913380121627
32     1          3.0332265453101237    17.7471393093916241    10.8148453073943269
33     1          6.2422007892957287    15.5722977870614567    12.5935415674775175
34     1          6.2979285879535611    18.0120364100887898    10.1096786572173709
35     1          9.4386950646284529    15.3883560054362878    12.3537102422488285
36     1          9.3040851526769899    18.3778886412811140    10.6736002771250078
37     1         12.9088515029998998    15.1656660466076723    12.6348959561848737
38     1         12.7019136152169878    18.1831113613567261    10.6970489234658714
39     1          0.0247952821325390    15.6627931120487389    11.9991282848443319
40     1         -0.0780915450927195    18.4640103839802379    10.3923189566317031
41     1          2.9342129438457625    20.5991917024686728    12.6011900920581716
42     1          3.4028295443275827    23.4465000024357515    10.2007325212727586
43     1          6.3181339475828242    20.3979032778226355    11.9943115354358021
44     1          6.2576461465625508    23.2541090194825699    10.6038643989915862
45     1          9.6045194172244877    20.8895918662359463    12.6342745135626942
46     1          9.3453371769049163    23.0740148502376847    10.4391525116085919
47     1         12.6594833172930556    20.3571108136373375    12.2294809028248572
48     1         12.8971750260644313    23.3890215963453940    10.6593093731615145
49     1          0.2639599526861107    20.7800165294180950    12.0683997882710692
50     1          0.1612588411794913    23.3468610922026656    10.5124121742809553
ITEM: TIMESTEP energy, energy_weight, force_weight, nsims
5        -96146.8248445209028432    1    1   100
ITEM: NUMBER OF ATOMS
50        
ITEM: BOX BOUNDS xy xz yz pp pp pp
   -1.5954958645974464     15.9549586459745019      0.0000000000000016
    0.0000000000000000     25.9098476786678873     -1.5954958645974464
    0.0000000000000000     22.7634660138471361      0.0000000000000015
ITEM: ATOMS id type x y z
1      1          3.3811422881392796    -0.0845878797165462    12.5866351318889151
2      1          3.3634961038768325     2.6154177542277735    10.1783742449539591
3      1          6.5725207655317588     0.0978848135452402    12.2737421861421829
4      1          6.3135028612862412     2.4098308858518473    10.2400586851582815
5      1          9.7938971179720529     0.0726771227386642    12.1191554884421446
6      1          9.3209206654906342     2.8978506398338606    10.6206319680573866
7      1         12.9180059796222011     0.3632249726377101    12.1728499520756070
8      1         12.7965134369215239     2.8239713001629068    10.3067966148176797
9      1          0.0173390513085147     0.3701351290136109    12.0483042004740462
10     1         -0.1734958158121896     2.2746566195274691    10.1585153972034785
11     1          3.3124936853211775     5.1980958249287816    12.2144638442955209
12     1          3.1544893366062960     7.7892593707445528    10.6214651109134923
13     1          6.6167466345017081     4.8671130667424061    12.1519986172069245
14     1          6.3829370862680728     7.4953717414797270    10.4999514529849751
15     1          9.4678256281242721     5.2469099779553918    11.9663443410911903
16     1          9.6368649048874691     8.1821796198067833    10.2735665071306652
17     1         12.6382593931038336     5.5072599003849501    11.9866721162415555
18     1         12.8027842143181516     7.6074007408727509    10.6153485675955714
19     1          0.0782630608981687     4.9036122691673460    12.1800591417621948
20     1          0.2412423252684521     8.1430194760252430    10.2424192565839185
21     1          3.3229759336019975    10.4182849769731600    12.1680741769059040
22     1          3.3470328202483977    13.1244960194365206    10.5554874810189574
23     1          6.3115480597529388    10.6916934626327684    12.6037987852633577
24     1          6.3570844690260673    12.9669926463826659    10.6109574950015002
25     1          9.4625027348208022    10.6519943940195141    12.5845363403224386
26     1          9.7872569832827701    12.8068076040940699    10.3719411018561054
27     1         12.9246435615180975    10.2666709122966680    12.4351715817259816
28     1         12.7717310783054927    12.5657320173526728    10.4478777481316989
29     1          0.1582811672473926    10.1777327691548720    12.4606530055818805
30     1         -0.1500002246109539    13.1992018832484241    10.4639965584161043
31     1          3.2723034635911428    15.5564098684648968    12.3442565748132775
32     1          3.3057343670908113    18.4414636345302618    10.6202586472147580
33     1          6.4316611367290815    15.5441311916499760    12.3698222234934274
34     1          6.6230799553362276    18.1999527623478627    10.6208709844505318
35     1          9.3961786099278335    15.5481342631163280    12.1733507483279144
36     1          9.5030832148393216    18.0200218251433526    10.8007137476929316
37     1         12.8900533707232157    15.2843124210978285    12.3960389073015751
38     1         12.7059395299321256    17.9305784399718249    10.5523347409760397
39     1         -0.0571350260104048    15.5566352841397002    12.1103505797879905
40     1         -0.1767142500702544    18.4431814574313577    10.8089632277763492
41     1          3.1199037727494172    20.8007884543020829    12.6235802372293904
42     1          3.3996801950404527    23.3202024499260858    10.2902589567586187
43     1          6.4766754997553155    20.9794731278332485    12.5822873098802717
44     1          6.5521761191135184    23.0200627744163953    10.5706320149579707
45     1          9.3300936498649669    20.4985163983284373    12.2565443875687219
46     1          9.3310099431400033    23.2376925399933683    10.4315449612667646
47     1         12.9096171814653218    21.0143063270524451    11.9815412310020335
48     1         12.5937244765849137    23.5625942569295610    10.4415995842050791
49     1         -0.1017658318307889    20.4547572565839353    12.3306554038700025
50     1         -0.0072494545599684    23.4601855839796229    10.2702771862916631
ITEM: TIMESTEP energy, energy_weight, force_weight, nsims
6        -96146.2057410403795075    1    1   100
ITEM: NUMBER OF ATOMS
50        
ITEM: BOX BOUNDS xy xz yz pp pp pp
   -1.5954958645974464     15.9549586459745019      0.0000000000000016
    0.0000000000000000     25.9098476786678873     -1.5954958645974464
    0.0000000000000000     22.7634660138471361      0.0000000000000015
ITEM: ATOMS id type x y z
1      1          3.2087291758208045     0.0848314322847274    12.5808395534417894
2      1          3.0692035411105163     2.7568777495989965    10.4426148347892980
3      1          6.2953180376199063    -0.2860913560983142    12.3625606778350114
4      1          6.5068712162903406     2.4716284635502381    10.7886263472395783
5      1          9.7757745186444360    -0.2678534143172999    12.4740288182116181
6      1          9.4059195908299582     2.4377409737713083    10.7261338039917629
7      1         12.8970934962257484     0.1303861264733612    12.0189507110491913
8      1         12.6160757781520569     2.8827944273477866    10.6570785534921573
9      1          0.1100710260043696     0.0144887868219119    12.4016819705264094
10     1         -0.0608477448873240     2.5696609632272458    10.3583604180322446
11     1          2.9351751874017005     5.1070330742773349    12.4959978392615803
12     1          3.0129696511644339     8.0565116765957079    10.2064302168160257
13     1          6.1994287361575999     4.8324923282741699    12.4214270009468191
14     1          6.4589627833153145     7.8817393900640216    10.6297441835027300
15     1          9.6931054959161855     5.1799485676146420    12.6059658672278747
16     1          9.6814138617700003     8.0369160587963311    10.5646725395555450
17     1         12.7781719355612857     5.0368199780529137    12.4751260172734852
18     1         12.9452139706011806     7.8318707062368897    10.7986877992176993
19     1          0.2144301768134783     4.7800663424811534    12.3691848464450409
20     1         -0.2371071190865843     7.6156478453888701    10.4808301415333442
21     1          3.2536399911654263    10.7628444953431579    12.6186382887577846
22     1          3.4629465521089213    13.1180936960751229    10.2044156500738001
23     1          6.1520921289004455    10.3682297422427432    12.2056953571869879
24     1          6.5512912571070121    12.5540984957449524    10.5568510126331869
25     1          9.7219549330406618    10.0182213829059226    11.9715981490471854
26     1          9.7334281438029819    13.0795450246987990    10.4617885022127606
27     1         12.6630210102736278    10.4963798488614337    12.1066196477083210
28     1         12.8311224545676126    12.6241613148528380    10.8056648015509431
29     1         -0.2604763470153428    10.1407645984869497    12.3934848464148235
30     1         -0.1949673609595956    12.6749394343334902    10.1645158468447292
31     1          2.9648217342601315    15.6643580668485303    12.3185930432292654
32     1          3.1814342303172047    18.0464861435623476    10.5970603990000463
33     1          6.4410606815161842    15.4631370078064609    12.2964487434909948
34     1          6.5987756072812287    18.4661634923223339    10.3777594437692464
35     1          9.3376079567384611    15.8047220756629461    12.4891027854059864
36     1          9.6381167309428335    18.5111818526640235    10.1303706478239590
37     1         12.9740045339282570    15.2455461070010081    12.6516589725574704
38     1         12.5224010249498132    18.0598841257969838    10.6626556026655503
39     1         -0.1279450470762770    15.2139024100310518    12.3164783172365784
40     1          0.0750530827681857    17.8779736762298249    10.7238779445097911
41     1          3.3982136152417146    20.4030748834192970    12.0585750763394941
42     1          3.3822227579387873    23.2409286799684338    10.5314993405335660
43     1          6.2895959512511146    20.3692262584118851    12.3964418206500202
44     1          6.2757137012828395    23.2296838060758937    10.7872673683185507
45     1          9.6405179522190547    20.7753035281253453    12.3707737363728061
46     1          9.5521520519566696    23.2712276558438660    10.6633680991517821
47     1         12.5246208383462285    20.3889125606781398    12.1823150012441666
48     1         12.8960385543600786    22.9510026664136753    10.7054349843453718
49     1         -0.2206072986028489    20.7998945645571673    11.9670909827764458
50     1         -0.2337813079568300    23.3624018188403326    10.6278024598517487
ITEM: TIMESTEP energy, energy_weight, force_weight, nsims
7        -96146.4931011387816397    1    1   100
ITEM: NUMBER OF ATOMS
50        
ITEM: BOX BOUNDS xy xz yz pp pp pp
   -1.5954958645974464     15.9549586459745019      0.0000000000000016
    0.0000000000000000     25.9098476786678873     -1.5954958645974464
    0.0000000000000000     22.7634660138471361      0.0000000000000015
ITEM: ATOMS id type x y z
1      1          2.9558146814557196    -0.2947789280249716    12.6441174362670825
2      1          3.2697264186706434     2.3873644569296748    10.2754945727020370
3      1          6.6319448494591038     0.2724524122802651    12.3011289121034402
4      1          6.2430030046164466     2.6642655900563659    10.5831678556917979
5      1          9.7182485961472000     0.1317723033241699    12.1032847999372919
6      1          9.6770481064357021     2.4583988953255105    10.1469470037752405
7      1         12.5756301175341001    -0.0066899226706312    12.4472407714065216
8      1         12.7285303154285483     2.6069452340368491    10.5312762585666295
9      1         -0.2081616331110575     0.2150543267177121    12.0696517789018323
10     1         -0.0006056502301994     2.3240019244314922    10.7220386564558723
11     1          3.2259929197245087     4.8202887900175178    12.0646028421399620
12     1          2.9874406004837697     8.0510291528269011    10.1598948632439186
13     1          6.3664672611065916     5.4814277822493178    12.4980761437086461
14     1          6.5349358289990231     7.4061770908459117    10.4364095139539224
15     1          9.5499615956841613     4.8281861115899751    12.1042021676176503
16     1          9.6426356538801308     7.5331172075780097    10.3697899543177972
17     1         12.9545284754586998     5.2313277955614410    12.2601023173066856
18     1         12.6595578269499320     7.5560085580021132    10.6329948064495063
19     1         -0.1976634298715925     5.3770318239824295    12.0480515260012915
20     1         -0.1439389358213484     7.6701803017981627    10.4733978698798218
21     1          3.3414010389455417    10.2063372409921218    12.1060391793249682
22     1          3.3036592651693164    12.6391449797654101    10.4927286052187831
23     1          6.1377494188256456    10.6775207759525372    12.6389865510275623
24     1          6.4589825674640347    12.7371748884576501    10.4237712376230345
25     1          9.4728233593705369    10.5051088765443765    12.1679967811214578
26     1          9.5412072694247030    13.2656321417117624    10.3540308067964109