ITEM: TIMESTEP energy, energy_weight, force_weight, nsims
1        -67333.4880155299033504    1    1   4
ITEM: NUMBER OF ATOMS
35        
ITEM: BOX BOUNDS xy xz yz pp pp pp
   -4.7864875937923514      6.3819834583898007     -4.7864875937923514
    0.0000000000000000      8.2904390278197688      0.0000000000000010
    0.0000000000000000     15.5459054162090045      0.0000000000000016
ITEM: ATOMS id type x y z
1      1         -0.0015954958645975     1.8432412714604127     2.5909844487676166
2      1          0.0000000000000000     0.0000000000000000     5.1819688975352332
3      1         -0.0015954958645975     1.8432412714604127     7.7729533463028480
4      1          0.0000000000000000     0.0000000000000000    10.3639384332688085
5      1         -0.0015954958645975     1.8432412714604127    12.9549228820364277
6      1         -1.5954958645974500     2.7634798886727046     0.0000000000000000
7      1         -1.5970913604620471     4.6067211601331177     2.5909844487676166
8      1         -1.5954958645974500     2.7634798886727046     5.1819688975352332
9      1         -1.5970913604620471     4.6067211601331177     7.7729533463028480
10     1         -1.5954958645974500     2.7634798886727046    10.3639384332688085
11     1         -1.5970913604620471     4.6067211601331177    12.9549228820364277
12     1         -3.1909917291948999     5.5269597773454091     0.0000000000000000
13     1         -3.1925872250594969     7.3702010488058223     2.5909844487676166
14     1         -3.1909917291948999     5.5269597773454091     5.1819688975352332
15     1         -3.1925872250594969     7.3702010488058223     7.7729533463028480
16     1         -3.1909917291948999     5.5269597773454091    10.3639384332688085
17     1         -3.1925872250594969     7.3702010488058223    12.9549228820364277
18     1          3.1909917291948999     0.0000000000000000     0.0000000000000000
19     1          3.1893962333303025     1.8432412714604127     2.5909844487676166
20     1          3.1909917291948999     0.0000000000000000     5.1819688975352332
21     1          3.1893962333303025     1.8432412714604127     7.7729533463028480
22     1          3.1909917291948999     0.0000000000000000    10.3639384332688085
23     1          3.1893962333303025     1.8432412714604127    12.9549228820364277
24     1          1.5954958645974500     2.7634798886727046     0.0000000000000000
25     1          1.5939003687328523     4.6067211601331177     2.5909844487676166
26     1          1.5954958645974500     2.7634798886727046     5.1819688975352332
27     1          1.5939003687328523     4.6067211601331177     7.7729533463028480
28     1          1.5954958645974500     2.7634798886727046    10.3639384332688085
29     1          1.5939003687328523     4.6067211601331177    12.9549228820364277
30     1         -0.0000000000000000     5.5269597773454091     0.0000000000000000
31     1         -0.0015954958645975     7.3702010488058223     2.5909844487676166
32     1         -0.0000000000000000     5.5269597773454091     5.1819688975352332
33     1         -0.0015954958645975     7.3702010488058223     7.7729533463028480
34     1         -0.0000000000000000     5.5269597773454091    10.3639384332688085
35     1         -0.0015954958645975     7.3702010488058223    12.9549228820364277
ITEM: TIMESTEP energy, energy_weight, force_weight, nsims
2        -101962.4562714741623495    1    1   4
ITEM: NUMBER OF ATOMS
53        
ITEM: BOX BOUNDS xy xz yz pp pp pp
   -4.7864875937923479      9.5729751875847011     -4.7864875937923479
    0.0000000000000000      8.2904358368280437      0.0000000000000010
    0.0000000000000000     15.5459086072007331      0.0000000000000016
ITEM: ATOMS id type x y z
1      1         -0.0015958149637704     1.8432409523612399     2.5909841296684428
2      1          0.0000000000000000     0.0000000000000000     5.1819692166344042
3      1         -0.0015958149637704     1.8432409523612399     7.7729533463028480
4      1          0.0000000000000000     0.0000000000000000    10.3639384332688085
5      1         -0.0015958149637704     1.8432409523612399    12.9549225629372522
6      1         -1.5954961836966226     2.7634795695735317     0.0000000000000000
7      1         -1.5970910413628743     4.6067205219347720     2.5909841296684428
8      1         -1.5954961836966226     2.7634795695735317     5.1819692166344042
9      1         -1.5970910413628743     4.6067205219347720     7.7729533463028480
10     1         -1.5954961836966226     2.7634795695735317    10.3639384332688085
11     1         -1.5970910413628743     4.6067205219347720    12.9549225629372522
12     1         -3.1909914100957266     5.5269600964445820     0.0000000000000000
13     1         -3.1925872250594973     7.3702010488058223     2.5909841296684428
14     1         -3.1909914100957266     5.5269600964445820     5.1819692166344042
15     1         -3.1925872250594973     7.3702010488058223     7.7729533463028480
16     1         -3.1909914100957266     5.5269600964445820    10.3639384332688085
17     1         -3.1925872250594973     7.3702010488058223    12.9549225629372522
18     1          3.1909914100957266     0.0000000000000000     0.0000000000000000
19     1          3.1893965524294750     1.8432409523612399     2.5909841296684428
20     1          3.1909914100957266     0.0000000000000000     5.1819692166344042
21     1          3.1893965524294750     1.8432409523612399     7.7729533463028480
22     1          3.1909914100957266     0.0000000000000000    10.3639384332688085
23     1          3.1893965524294750     1.8432409523612399    12.9549225629372522
24     1          1.5954961836966226     2.7634795695735317     0.0000000000000000
25     1          1.5939003687328523     4.6067205219347720     2.5909841296684428
26     1          1.5954961836966226     2.7634795695735317     5.1819692166344042
27     1          1.5939003687328523     4.6067205219347720     7.7729533463028480
28     1          1.5954961836966226     2.7634795695735317    10.3639384332688085
29     1          1.5939003687328523     4.6067205219347720    12.9549225629372522
30     1         -0.0000000000000000     5.5269600964445820     0.0000000000000000
31     1         -0.0015958149637704     7.3702010488058223     2.5909841296684428
32     1         -0.0000000000000000     5.5269600964445820     5.1819692166344042
33     1         -0.0015958149637704     7.3702010488058223     7.7729533463028480
34     1         -0.0000000000000000     5.5269600964445820    10.3639384332688085
35     1         -0.0015958149637704     7.3702010488058223    12.9549225629372522
36     1          6.3819837774889718     0.0000000000000000     0.0000000000000000
37     1          6.3803879625252025     1.8432409523612399     2.5909841296684428
38     1          6.3819837774889718     0.0000000000000000     5.1819692166344042
39     1          6.3803879625252025     1.8432409523612399     7.7729533463028480
40     1          6.3819837774889718     0.0000000000000000    10.3639384332688085
41     1          6.3803879625252025     1.8432409523612399    12.9549225629372522
42     1          4.7864875937923497     2.7634795695735317     0.0000000000000000
43     1          4.7848917788285785     4.6067205219347720     2.5909841296684428
44     1          4.7864875937923497     2.7634795695735317     5.1819692166344042
45     1          4.7848917788285785     4.6067205219347720     7.7729533463028480
46     1          4.7864875937923497     2.7634795695735317    10.3639384332688085
47     1          4.7848917788285785     4.6067205219347720    12.9549225629372522
48     1          3.1909914100957266     5.5269600964445820     0.0000000000000000
49     1          3.1893965524294750     7.3702010488058223     2.5909841296684428
50     1          3.1909914100957266     5.5269600964445820     5.1819692166344042
51     1          3.1893965524294750     7.3702010488058223     7.7729533463028480
52     1          3.1909914100957266     5.5269600964445820    10.3639384332688085
53     1          3.1893965524294750     7.3702010488058223    12.9549225629372522
ITEM: TIMESTEP energy, energy_weight, force_weight, nsims
3        -182763.6863678220543079    1    1   4
ITEM: NUMBER OF ATOMS
95        
ITEM: BOX BOUNDS xy xz yz pp pp pp
   -6.3819834583897972     12.7639669167796015     -6.3819834583897972
    0.0000000000000000     11.0539144491040560      0.0000000000000010
    0.0000000000000000     15.5459117981924635      0.0000000000000016
ITEM: ATOMS id type x y z
1      1         -0.0015954958645975     1.8432406332620668     2.5909844487676166
2      1          0.0000000000000000     0.0000000000000000     5.1819688975352332
3      1         -0.0015954958645975     1.8432406332620668     7.7729533463028480
4      1          0.0000000000000000     0.0000000000000000    10.3639377950704663
5      1         -0.0015954958645975     1.8432406332620668    12.9549222438380784
6      1         -1.5954958645974500     2.7634805268710503     0.0000000000000000
7      1         -1.5970913604620471     4.6067211601331177     2.5909844487676166
8      1         -1.5954958645974500     2.7634805268710503     5.1819688975352332
9      1         -1.5970913604620471     4.6067211601331177     7.7729533463028480
10     1         -1.5954958645974500     2.7634805268710503    10.3639377950704663
11     1         -1.5970913604620471     4.6067211601331177    12.9549222438380784
12     1         -3.1909917291948999     5.5269597773454091     0.0000000000000000
13     1         -3.1925872250594969     7.3702004106074765     2.5909844487676166
14     1         -3.1909917291948999     5.5269597773454091     5.1819688975352332
15     1         -3.1925872250594969     7.3702004106074765     7.7729533463028480
16     1         -3.1909917291948999     5.5269597773454091    10.3639377950704663
17     1         -3.1925872250594969     7.3702004106074765    12.9549222438380784
18     1         -4.7864875937923497     8.2904403042164603     0.0000000000000000
19     1         -4.7880830896569471    10.1336809374785268     2.5909844487676166
20     1         -4.7864875937923497     8.2904403042164603     5.1819688975352332
21     1         -4.7880830896569471    10.1336809374785268     7.7729533463028480
22     1         -4.7864875937923497     8.2904403042164603    10.3639377950704663
23     1         -4.7880830896569471    10.1336809374785268    12.9549222438380784
24     1          3.1909917291948999     0.0000000000000000     0.0000000000000000
25     1          3.1893962333303025     1.8432406332620668     2.5909844487676166
26     1          3.1909917291948999     0.0000000000000000     5.1819688975352332
27     1          3.1893962333303025     1.8432406332620668     7.7729533463028480
28     1          3.1909917291948999     0.0000000000000000    10.3639377950704663
29     1          3.1893962333303025     1.8432406332620668    12.9549222438380784
30     1          1.5954958645974500     2.7634805268710503     0.0000000000000000
31     1          1.5939003687328523     4.6067211601331177     2.5909844487676166
32     1          1.5954958645974500     2.7634805268710503     5.1819688975352332
33     1          1.5939003687328523     4.6067211601331177     7.7729533463028480
34     1          1.5954958645974500     2.7634805268710503    10.3639377950704663
35     1          1.5939003687328523     4.6067211601331177    12.9549222438380784
36     1          0.0000000000000000     5.5269597773454091     0.0000000000000000
37     1         -0.0015954958645975     7.3702004106074765     2.5909844487676166
38     1          0.0000000000000000     5.5269597773454091     5.1819688975352332
39     1         -0.0015954958645975     7.3702004106074765     7.7729533463028480
40     1          0.0000000000000000     5.5269597773454091    10.3639377950704663
41     1         -0.0015954958645975     7.3702004106074765    12.9549222438380784
42     1         -1.5954958645974500     8.2904403042164603     0.0000000000000000
43     1         -1.5970913604620471    10.1336809374785268     2.5909844487676166
44     1         -1.5954958645974500     8.2904403042164603     5.1819688975352332
45     1         -1.5970913604620471    10.1336809374785268     7.7729533463028480
46     1         -1.5954958645974500     8.2904403042164603    10.3639377950704663
47     1         -1.5970913604620471    10.1336809374785268    12.9549222438380784
48     1          6.3819834583897999     0.0000000000000000     0.0000000000000000
49     1          6.3803879625252025     1.8432406332620668     2.5909844487676166
50     1          6.3819834583897999     0.0000000000000000     5.1819688975352332
51     1          6.3803879625252025     1.8432406332620668     7.7729533463028480
52     1          6.3819834583897999     0.0000000000000000    10.3639377950704663
53     1          6.3803879625252025     1.8432406332620668    12.9549222438380784
54     1          4.7864875937923497     2.7634805268710503     0.0000000000000000
55     1          4.7848920979277532     4.6067211601331177     2.5909844487676166
56     1          4.7864875937923497     2.7634805268710503     5.1819688975352332
57     1          4.7848920979277532     4.6067211601331177     7.7729533463028480
58     1          4.7864875937923497     2.7634805268710503    10.3639377950704663
59     1          4.7848920979277532     4.6067211601331177    12.9549222438380784
60     1          3.1909917291948999     5.5269597773454091     0.0000000000000000
61     1          3.1893962333303025     7.3702004106074765     2.5909844487676166
62     1          3.1909917291948999     5.5269597773454091     5.1819688975352332
63     1          3.1893962333303025     7.3702004106074765     7.7729533463028480
64     1          3.1909917291948999     5.5269597773454091    10.3639377950704663
65     1          3.1893962333303025     7.3702004106074765    12.9549222438380784
66     1          1.5954958645974500     8.2904403042164603     0.0000000000000000
67     1          1.5939003687328523    10.1336809374785268     2.5909844487676166
68     1          1.5954958645974500     8.2904403042164603     5.1819688975352332
69     1          1.5939003687328523    10.1336809374785268     7.7729533463028480
70     1          1.5954958645974500     8.2904403042164603    10.3639377950704663
71     1          1.5939003687328523    10.1336809374785268    12.9549222438380784
72     1          9.5729751875846993     0.0000000000000000     0.0000000000000000
73     1          9.5713796917201019     1.8432406332620668     2.5909844487676166
74     1          9.5729751875846993     0.0000000000000000     5.1819688975352332
75     1          9.5713796917201019     1.8432406332620668     7.7729533463028480
76     1          9.5729751875846993     0.0000000000000000    10.3639377950704663
77     1          9.5713796917201019     1.8432406332620668    12.9549222438380784
78     1          7.9774793229872500     2.7634805268710503     0.0000000000000000
79     1          7.9758838271226509     4.6067211601331177     2.5909844487676166
80     1          7.9774793229872500     2.7634805268710503     5.1819688975352332
81     1          7.9758838271226509     4.6067211601331177     7.7729533463028480
82     1          7.9774793229872500     2.7634805268710503    10.3639377950704663
83     1          7.9758838271226509     4.6067211601331177    12.9549222438380784
84     1          6.3819834583897999     5.5269597773454091     0.0000000000000000
85     1          6.3803879625252025     7.3702004106074765     2.5909844487676166
86     1          6.3819834583897999     5.5269597773454091     5.1819688975352332
87     1          6.3803879625252025     7.3702004106074765     7.7729533463028480
88     1          6.3819834583897999     5.5269597773454091    10.3639377950704663
89     1          6.3803879625252025     7.3702004106074765    12.9549222438380784
90     1          4.7864875937923497     8.2904403042164603     0.0000000000000000
91     1          4.7848920979277532    10.1336809374785268     2.5909844487676166
92     1          4.7864875937923497     8.2904403042164603     5.1819688975352332
93     1          4.7848920979277532    10.1336809374785268     7.7729533463028480
94     1          4.7864875937923497     8.2904403042164603    10.3639377950704663
95     1          4.7848920979277532    10.1336809374785268    12.9549222438380784
ITEM: TIMESTEP energy, energy_weight, force_weight, nsims
4        -240477.2667163551959675    1    1   4
ITEM: NUMBER OF ATOMS
125       
ITEM: BOX BOUNDS xy xz yz pp pp pp
   -6.3819834583897972     12.7639669167796015     -6.3819834583897972
    0.0000000000000000     11.0539144491040560      0.0000000000000013
    0.0000000000000000     20.7278781429343120      0.0000000000000022
ITEM: ATOMS id type x y z
1      1         -0.0015954958645975     1.8432406332620668     2.5909844487676166
2      1          0.0000000000000000     0.0000000000000000     5.1819688975352332
3      1         -0.0015954958645975     1.8432406332620668     7.7729533463028480
4      1          0.0000000000000000     0.0000000000000000    10.3639377950704663
5      1         -0.0015954958645975     1.8432406332620668    12.9549222438380784
6      1          0.0000000000000000     0.0000000000000000    15.5459066926056959
7      1         -0.0015954958645975     1.8432406332620668    18.1368911413733116
8      1         -1.5954958645974500     2.7634805268710503     0.0000000000000000
9      1         -1.5970913604620471     4.6067211601331177     2.5909844487676166
10     1         -1.5954958645974500     2.7634805268710503     5.1819688975352332
11     1         -1.5970913604620471     4.6067211601331177     7.7729533463028480
12     1         -1.5954958645974500     2.7634805268710503    10.3639377950704663
13     1         -1.5970913604620471     4.6067211601331177    12.9549222438380784
14     1         -1.5954958645974500     2.7634805268710503    15.5459066926056959
15     1         -1.5970913604620471     4.6067211601331177    18.1368911413733116
16     1         -3.1909917291948999     5.5269597773454091     0.0000000000000000
17     1         -3.1925872250594969     7.3702004106074765     2.5909844487676166
18     1         -3.1909917291948999     5.5269597773454091     5.1819688975352332
19     1         -3.1925872250594969     7.3702004106074765     7.7729533463028480
20     1         -3.1909917291948999     5.5269597773454091    10.3639377950704663
21     1         -3.1925872250594969     7.3702004106074765    12.9549222438380784
22     1         -3.1909917291948999     5.5269597773454091    15.5459066926056959
23     1         -3.1925872250594969     7.3702004106074765    18.1368911413733116
24     1         -4.7864875937923497     8.2904403042164603     0.0000000000000000
25     1         -4.7880830896569471    10.1336809374785268     2.5909844487676166
26     1         -4.7864875937923497     8.2904403042164603     5.1819688975352332
27     1         -4.7880830896569471    10.1336809374785268     7.7729533463028480
28     1         -4.7864875937923497     8.2904403042164603    10.3639377950704663
29     1         -4.7880830896569471    10.1336809374785268    12.9549222438380784
30     1         -4.7864875937923497     8.2904403042164603    15.5459066926056959
31     1         -4.7880830896569471    10.1336809374785268    18.1368911413733116
32     1          3.1909917291948999     0.0000000000000000     0.0000000000000000
33     1          3.1893962333303025     1.8432406332620668     2.5909844487676166
34     1          3.1909917291948999     0.0000000000000000     5.1819688975352332
35     1          3.1893962333303025     1.8432406332620668     7.7729533463028480
36     1          3.1909917291948999     0.0000000000000000    10.3639377950704663
37     1          3.1893962333303025     1.8432406332620668    12.9549222438380784
38     1          3.1909917291948999     0.0000000000000000    15.5459066926056959
39     1          3.1893962333303025     1.8432406332620668    18.1368911413733116
40     1          1.5954958645974500     2.7634805268710503     0.0000000000000000
41     1          1.5939003687328523     4.6067211601331177     2.5909844487676166
42     1          1.5954958645974500     2.7634805268710503     5.1819688975352332
43     1          1.5939003687328523     4.6067211601331177     7.7729533463028480
44     1          1.5954958645974500     2.7634805268710503    10.3639377950704663
45     1          1.5939003687328523     4.6067211601331177    12.9549222438380784
46     1          1.5954958645974500     2.7634805268710503    15.5459066926056959
47     1          1.5939003687328523     4.6067211601331177    18.1368911413733116
48     1          0.0000000000000000     5.5269597773454091     0.0000000000000000
49     1         -0.0015954958645975     7.3702004106074765     2.5909844487676166
50     1          0.0000000000000000     5.5269597773454091     5.1819688975352332
51     1         -0.0015954958645975     7.3702004106074765     7.7729533463028480
52     1          0.0000000000000000     5.5269597773454091    10.3639377950704663
53     1         -0.0015954958645975     7.3702004106074765    12.9549222438380784
54     1          0.0000000000000000     5.5269597773454091    15.5459066926056959
55     1         -0.0015954958645975     7.3702004106074765    18.1368911413733116
56     1         -1.5954958645974500     8.2904403042164603     0.0000000000000000
57     1         -1.5970913604620471    10.1336809374785268     2.5909844487676166
58     1         -1.5954958645974500     8.2904403042164603     5.1819688975352332
59     1         -1.5970913604620471    10.1336809374785268     7.7729533463028480
60     1         -1.5954958645974500     8.2904403042164603    10.3639377950704663
61     1         -1.5970913604620471    10.1336809374785268    12.9549222438380784
62     1         -1.5954958645974500     8.2904403042164603    15.5459066926056959
63     1         -1.5970913604620471    10.1336809374785268    18.1368911413733116
64     1          6.3819834583897999     0.0000000000000000     0.0000000000000000
65     1          6.3803879625252025     1.8432406332620668     2.5909844487676166
66     1          6.3819834583897999     0.0000000000000000     5.1819688975352332
67     1          6.3803879625252025     1.8432406332620668     7.7729533463028480
68     1          6.3819834583897999     0.0000000000000000    10.3639377950704663
69     1          6.3803879625252025     1.8432406332620668    12.9549222438380784
70     1          6.3819834583897999     0.0000000000000000    15.5459066926056959
71     1          6.3803879625252025     1.8432406332620668    18.1368911413733116
72     1          4.7864875937923497     2.7634805268710503     0.0000000000000000
73     1          4.7848920979277532     4.6067211601331177     2.5909844487676166
74     1          4.7864875937923497     2.7634805268710503     5.1819688975352332
75     1          4.7848920979277532     4.6067211601331177     7.7729533463028480
76     1          4.7864875937923497     2.7634805268710503    10.3639377950704663
77     1          4.7848920979277532     4.6067211601331177    12.9549222438380784
78     1          4.7864875937923497     2.7634805268710503    15.5459066926056959
79     1          4.7848920979277532     4.6067211601331177    18.1368911413733116
80     1          3.1909917291948999     5.5269597773454091     0.0000000000000000
81     1          3.1893962333303025     7.3702004106074765     2.5909844487676166
82     1          3.1909917291948999     5.5269597773454091     5.1819688975352332
83     1          3.1893962333303025     7.3702004106074765     7.7729533463028480
84     1          3.1909917291948999     5.5269597773454091    10.3639377950704663
85     1          3.1893962333303025     7.3702004106074765    12.9549222438380784
86     1          3.1909917291948999     5.5269597773454091    15.5459066926056959
87     1          3.1893962333303025     7.3702004106074765    18.1368911413733116
88     1          1.5954958645974500     8.2904403042164603     0.0000000000000000
89     1          1.5939003687328523    10.1336809374785268     2.5909844487676166
90     1          1.5954958645974500     8.2904403042164603     5.1819688975352332
91     1          1.5939003687328523    10.1336809374785268     7.7729533463028480
92     1          1.5954958645974500     8.2904403042164603    10.3639377950704663
93     1          1.5939003687328523    10.1336809374785268    12.9549222438380784
94     1          1.5954958645974500     8.2904403042164603    15.5459066926056959
95     1          1.5939003687328523    10.1336809374785268    18.1368911413733116
96     1          9.5729751875846993     0.0000000000000000     0.0000000000000000
97     1          9.5713796917201019     1.8432406332620668     2.5909844487676166
98     1          9.5729751875846993     0.0000000000000000     5.1819688975352332
99     1          9.5713796917201019     1.8432406332620668     7.7729533463028480
100    1          9.5729751875846993     0.0000000000000000    10.3639377950704663
101    1          9.5713796917201019     1.8432406332620668    12.9549222438380784
102    1          9.5729751875846993     0.0000000000000000    15.5459066926056959
103    1          9.5713796917201019     1.8432406332620668    18.1368911413733116
104    1          7.9774793229872500     2.7634805268710503     0.0000000000000000
105    1          7.9758838271226509     4.6067211601331177     2.5909844487676166
106    1          7.9774793229872500     2.7634805268710503     5.1819688975352332
107    1          7.9758838271226509     4.6067211601331177     7.7729533463028480
108    1          7.9774793229872500     2.7634805268710503    10.3639377950704663
109    1          7.9758838271226509     4.6067211601331177    12.9549222438380784
110    1          7.9774793229872500     2.7634805268710503    15.5459066926056959
111    1          7.9758838271226509     4.6067211601331177    18.1368911413733116
112    1          6.3819834583897999     5.5269597773454091     0.0000000000000000
113    1          6.3803879625252025     7.3702004106074765     2.5909844487676166
114    1          6.3819834583897999     5.5269597773454091     5.1819688975352332
115    1          6.3803879625252025     7.3702004106074765     7.7729533463028480
116    1          6.3819834583897999     5.5269597773454091    10.3639377950704663
117    1          6.3803879625252025     7.3702004106074765    12.9549222438380784
118    1          6.3819834583897999     5.5269597773454091    15.5459066926056959
119    1          6.3803879625252025     7.3702004106074765    18.1368911413733116
120    1          4.7864875937923497     8.2904403042164603     0.0000000000000000
121    1          4.7848920979277532    10.1336809374785268     2.5909844487676166
122    1          4.7864875937923497     8.2904403042164603     5.1819688975352332
123    1          4.7848920979277532    10.1336809374785268     7.7729533463028480
124    1          4.7864875937923497     8.2904403042164603    10.3639377950704663
125    1          4.7848920979277532    10.1336809374785268    12.9549222438380784
