ITEM: TIMESTEP energy, energy_weight, force_weight, nsims
1        -100037.8668385873170337    1    1   5
ITEM: NUMBER OF ATOMS
52        
ITEM: BOX BOUNDS xy xz yz pp pp pp
   -4.7864875937923479      9.5729751875847011     -4.7864875937923479
    0.0000000000000000      8.2904358368280437      0.0000000000000010
    0.0000000000000000     15.5459086072007331      0.0000000000000016
ITEM: ATOMS id type x y z
1      1         -0.0004547163214103     0.0196810796881554     5.1491674171541453
2      1         -0.0011439705349164     1.8435568605424302     7.7574891621848234
3      1         -0.0004528017263728    -0.0003178227762278    10.3794016600893162
4      1         -0.0011420559398789     1.8235637018631592    12.9877253197150306
5      1         -1.5687722661629611     2.7277991764543659     0.0209341821402102
6      1         -1.5829354829529929     4.5801315833512550     2.5928680911853594
7      1         -1.5753441136292381     2.7527961292641874     5.1627064759619463
8      1         -1.6008991708924956     4.6077094102716485     7.7788426406382500
9      1         -1.5967320547933399     2.7677720916476440    10.3611134482909524
10     1         -1.6024710534182969     4.6060475417790849    12.9499570607074528
11     1         -3.2051460112080896     5.5535528642181733    -0.0018839615169167
12     1         -3.2193082707006027     7.4058823992225067     2.5700489902307142
13     1         -3.1856113980403040     5.5276340338977876     5.1869423772443541
14     1         -3.1913523112602986     7.3659113986242648     7.7757754593881474
15     1         -3.1871813659710679     5.5259712081077046    10.3580453097433338
16     1         -3.2127354659368064     7.3808816172226104    12.9741862609072314
17     1          3.1644847990988234     0.0035238121665499    -0.0010827034937158
18     1          3.1637926729927615     1.8397736207482966     2.5920936374926842
19     1          3.1841553485142722     0.0012444867743860     5.1849129065045867
20     1          3.1955012387065977     1.8457347123976056     7.7768485899066757
21     1          3.1961589021019847    -0.0024947173338846    10.3600451042600188
22     1          3.1835197029618167     1.8420060385620414    12.9519539833315811
23     1          1.5681021578998304     2.7278958635037602     0.0205215869096253
24     1          1.5805594705114343     4.5799334227648716     2.5928776641605471
25     1          1.5746682615809948     2.7529349374044072     5.1631171565974947
26     1          1.5986380341531881     4.6077343000071371     7.7788637011836634
27     1          1.5958187929604444     2.7677730489451631    10.3611029180182470
28     1          1.6001677955881639     4.6060283958287096    12.9499264271868508
29     1         -0.0004403568586289     5.5142672886433628     0.0008740126346265
30     1         -0.0011698175679228     7.3700076747070327     2.5917356082206680
31     1         -0.0004566309164478     5.5199823548303506     5.1861286743534096
32     1         -0.0011315256671725     7.3711784495724739     7.7777675955246837
33     1         -0.0004566309164478     5.5298645371164961    10.3593319176085448
34     1         -0.0011813051381480     7.3717059205053097    12.9499618471950466
35     1          6.4075895715207238     0.0034654170179057    -0.0011095078242411
36     1          6.4068926589270676     1.8397152255996521     2.5920687477571964
37     1          6.3878606269566305     0.0012358710967172     5.1849425827276683
38     1          6.3752214278164621     1.8457356696951244     7.7768418888240447
39     1          6.3758781339143313    -0.0024928027388471    10.3600403177724250
40     1          6.3872240241066560     1.8419974228843725    12.9519836595546636
41     1          4.7860644682890578     2.7636729436723209    -0.0007476493621504
42     1          4.7853311783896890     4.6194133297359894     2.5901101170338166
43     1          4.7860721266692083     2.7619737405765248     5.1869356761617240
44     1          4.7853484097450272     4.6038141666678207     7.7775569900705577
45     1          4.7860223471982319     2.7625002542118420    10.3591213121544161
46     1          4.7853484097450272     4.6136973062514830    12.9507659771108035
47     1          3.2043303937221070     5.5537510248045558    -0.0018935344921043
48     1          3.2167886636312302     7.4057885840656681     2.5704596708662613
49     1          3.1847239832404148     5.5276483933605691     5.1869701388723994
50     1          3.1890749004631722     7.3659066121366719     7.7757831177682979
51     1          3.1862527873778723     5.5259453610746982    10.3580232919004018
52     1          3.2102216026525463     7.3807437663799087    12.9737765375692007
ITEM: TIMESTEP energy, energy_weight, force_weight, nsims
2        -100037.8710249245632440    1    1   5
ITEM: NUMBER OF ATOMS
52        
ITEM: BOX BOUNDS xy xz yz pp pp pp
   -4.7864875937923479      9.5729751875847011     -4.7864875937923479
    0.0000000000000000      8.2904358368280437      0.0000000000000010
    0.0000000000000000     15.5459086072007331      0.0000000000000016
ITEM: ATOMS id type x y z
1      1          0.0015077435920446     1.8186594666745597     2.5699934669746263
2      1         -0.0008960304775579    -0.0027426573912430     5.1696928332538459
3      1         -0.0031246191012276     1.8419217963803904     7.7729533463028480
4      1         -0.0008960304775579    -0.0027426573912430    10.3762148166493677
5      1          0.0015077435920446     1.8186594666745597    12.9759141829285891
6      1         -1.5824396028382759     2.7326986251553720     0.0000000000000000
7      1         -1.6008235443885135     4.6192793080833638     2.5857161214227156
8      1         -1.5937615605926323     2.7660623582791422     5.1882567467376104
9      1         -1.5965654850250759     4.6027171037113233     7.7729533463028480
10     1         -1.5937615605926323     2.7660623582791422    10.3576509031656023
11     1         -1.6008235443885135     4.6192793080833638    12.9601915284805003
12     1         -3.1915112226484124     5.5449946244004726     0.0000000000000000
13     1         -3.1922406833577064     7.3995106269376505     2.5458666976093562
14     1         -3.1915925929375066     5.5280255685829607     5.1893337064462139
15     1         -3.1919869995152355     7.3717279383482417     7.7729533463028480
16     1         -3.1915925929375066     5.5280255685829607    10.3565729861594811
17     1         -3.1922406833577064     7.3995106269376505    13.0000399949963406
18     1          3.1874877011770710     1.8186872283026034     2.5700499475282328
19     1          3.1906831602946868    -0.0027570168540244     5.1696650716258024
20     1          3.1921229357628991     1.8419275401655031     7.7729533463028480
21     1          3.1906831602946868    -0.0027570168540244    10.3762425782774130
22     1          3.1874877011770710     1.8186872283026034    12.9758577023749826
23     1          1.5948739403094296     2.6916688535013842     0.0000000000000000
24     1          1.5944670888639574     4.6055688930197052     2.5856672992492586
25     1          1.5949017019374736     2.7684326269355881     5.1871826589215635
26     1          1.5944986796820764     4.6052702161938521     7.7729533463028480
27     1          1.5949017019374736     2.7684326269355881    10.3587240336841315
28     1          1.5944670888639574     4.6055688930197052    12.9602393933564386
29     1         -0.0144255163101714     5.5473782952221811     0.0000000000000000
30     1         -0.0258096984032471     7.3859658243447370     2.5630310421206954
31     1          0.0001751854459328     5.5281021523844611     5.1890656631409611
32     1         -0.0014311597905439     7.3729800835027781     7.7729533463028480
33     1          0.0001751854459328     5.5281021523844611    10.3568410294647339
34     1         -0.0258096984032471     7.3859658243447370    12.9828756504849991
35     1          6.3814984276469611     0.0065996090943209     0.0000000000000000
36     1          6.3810092486148760     1.8396731045088268     2.5888493562016111
37     1          6.3813548330191479    -0.0038665246782655     5.1881294261676150
38     1          6.3809872307719449     1.8441168795909038     7.7729533463028480
39     1          6.3813548330191479    -0.0038665246782655    10.3577782237355986
40     1          6.3810092486148760     1.8396731045088268    12.9570582937016017
41     1          4.7721558926390166     2.7325818348580837     0.0000000000000000
42     1          4.7897816545543970     4.6192362296950193     2.5857170787202337
43     1          4.7835668790626178     2.7660604436841045     5.1882768499855043
44     1          4.7855647589842665     4.6027190183063613     7.7729533463028480
45     1          4.7835668790626178     2.7660604436841045    10.3576307999177093
46     1          4.7897816545543970     4.6192362296950193    12.9601905711829808
47     1          3.2043658137303010     5.5475592244532272     0.0000000000000000
48     1          3.2144097792971156     7.3858241443119601     2.5634771427644374
49     1          3.1896234319414205     5.5280696042688238     5.1891144853144180
50     1          3.1904380921298845     7.3729772116102215     7.7729533463028480
51     1          3.1896234319414205     5.5280696042688238    10.3567922072912779
52     1          3.2144097792971156     7.3858241443119601    12.9824305071387780
ITEM: TIMESTEP energy, energy_weight, force_weight, nsims
3        -100037.8248629679292208    1    1   5
ITEM: NUMBER OF ATOMS
52        
ITEM: BOX BOUNDS xy xz yz pp pp pp
   -4.7864875937923479      9.5729751875847011     -4.7864875937923479
    0.0000000000000000      8.2904358368280437      0.0000000000000010
    0.0000000000000000     15.5459086072007331      0.0000000000000016
ITEM: ATOMS id type x y z
1      1          0.0221690959394086     1.8204476984396005     2.5697627582726050
2      1          0.0061736116984734     0.0040493685043483     5.1684818518926168
3      1         -0.0037392041082706     1.8444615066976566     7.7764024892629342
4      1         -0.0019605453184173    -0.0006452185276432    10.3763919166903378
5      1         -0.0020687199380371     1.8229299709057414    12.9715546500281622
6      1         -1.5826741407303719     2.7393441845305930     0.0012502305594986
7      1         -1.5988534260949088     4.6052807464665584     2.5916303054936050
8      1         -1.5936131794772248     2.7630047500042272     5.1871319221530694
9      1         -1.5972107035527190     4.6061566736962227     7.7779332079954289
10     1         -1.5958972913569827     2.7658728133704278    10.3595319927899663
11     1         -1.5983738200380109     4.6055373022015864    12.9489662577755364
12     1         -3.2059156784131710     5.5507508543807669     0.0012444867743860
13     1         -3.2001450889700953     7.4016999663630498     2.5693913268353268
14     1         -3.1909071679140761     5.5295505435303420     5.1871300075580313
15     1         -3.1921880319941747     7.3669845291427940     7.7764312081884972
16     1         -3.1895487627349577     5.5261818135618315    10.3595396511701150
17     1         -3.2102273464376596     7.3793279233496651    12.9719078928125828
18     1          3.1672264991925476     0.0227951685166767     0.0212194568008002
19     1          3.1914691015575869     0.0203167252406110     5.1653438306261270
20     1          3.1913570977478920     1.8438890427814394     7.7605008201788381
21     1          3.1931347992402266    -0.0012215116339358    10.3604797173335346
22     1          3.1832229407310018     1.8391934984519289    12.9684108849765600
23     1          1.6030588340948149     2.7319816093138218     0.0215947174281536
24     1          1.6088208078602220     4.5829326358911420     2.5897386855965379
25     1          1.6131410915623787     2.7543526950296888     5.1649877159491480
26     1          1.5924577213720834     4.6074978475200030     7.7773435127238741
27     1          1.5950998625238568     2.7666989611291162    10.3604567421930867
28     1          1.5938170838487205     4.6041281602539739    12.9497684730962561
29     1          0.0017595128394781     5.5284008292103142    -0.0006442612301245
30     1         -0.0144101995498712     7.3943402630388357     2.5897367710015002
31     1          0.0012799067825801     5.5281423588802490     5.1879293509861952
32     1         -0.0011975791959668     7.3678058904138881     7.7773569148891371
33     1          0.0001158329997698     5.5275191581955374    10.3589518704935966
34     1         -0.0034807337782058     7.3706749110776073    12.9497656012037012
35     1          6.3993156490660947     0.0031791850597969     0.0006500050152370
36     1          6.3630589628406362     1.8400598527064052     2.5903341246532059
37     1          6.3732991743987952     0.0013325581461118     5.1855160039414052
38     1          6.3815951146963563     1.8447218916227590     7.7768830526173520
39     1          6.3807756680202985    -0.0014818965590381    10.3600058550617486
40     1          6.3890725656153782     1.8419112661076842    12.9513796048203265
41     1          4.7658415582052855     2.7520609247697809     0.0226889084920945
42     1          4.7738416935695502     4.5924577462027889     2.5903561424961379
43     1          4.7659411171472366     2.7521107042407564     5.1662255016409029
44     1          4.7872065242289361     4.6062849515637359     7.7768983693776512
45     1          4.7859965001652265     2.7636873031351019    10.3588848596672811
46     1          4.7885094061519675     4.6141453214902626    12.9513451421096519
47     1          3.2020386234621991     5.5412267013666403     0.0006279871723056
48     1          3.2100368442314262     7.3816149071219792     2.5682952211763488
49     1          3.1873747400698575     5.5195362541866109     5.1855475947595240
50     1          3.1898866887590795     7.3699885287566573     7.7780011761192620
51     1          3.1886757073978496     5.5273956668156172    10.3599914955989671
52     1          3.2099420717770699     7.3815718287336347    12.9706672352282730
ITEM: TIMESTEP energy, energy_weight, force_weight, nsims
4        -100037.7852876657998422    1    1   5
ITEM: NUMBER OF ATOMS
52        
ITEM: BOX BOUNDS xy xz yz pp pp pp
   -4.7864875937923479      9.5729751875847011     -4.7864875937923479
    0.0000000000000000      8.2904358368280437      0.0000000000000010
    0.0000000000000000     15.5459086072007331      0.0000000000000016
ITEM: ATOMS id type x y z
1      1         -0.0011746040555166     1.7966406664455961     2.5909841296684428
2      1         -0.0011784332455917     1.8233521391115137     7.7532894979700302
3      1         -0.0004049368504348     0.0002335805945771    10.3639384332688085
4      1         -0.0011784332455917     1.8233521391115137    12.9745864112700708
5      1         -1.5839167129097202     2.7453933475516274    -0.0023817562266711
6      1         -1.6007287719341565     4.6042219754108116     2.5909841296684428
7      1         -1.5839167129097202     2.7453933475516274     5.1843509728610755
8      1         -1.5987605682355892     4.6053152091772338     7.7758175804789733
9      1         -1.5952252684988140     2.7685072961420514    10.3639384332688085
10     1         -1.5987605682355892     4.6053152091772338    12.9520592860586454
11     1         -3.2012794865298240     5.5466919129012311    -0.0023721832514835
12     1         -3.2327515997565275     7.3933896666027090     2.5909841296684428
13     1         -3.2012794865298240     5.5466919129012311     5.1843413998858887
14     1         -3.2094078997616018     7.3799128321336260     7.7529276395079396
15     1         -3.1869248102360408     5.5254341641996803    10.3639384332688085
16     1         -3.2094078997616018     7.3799128321336260    12.9749482697321596
17     1          3.1687591325200799    -0.0009563402212397    -0.0023721832514835
18     1          3.1752840724079379     1.8346137871221884     2.5909841296684428
19     1          3.1687591325200799    -0.0009563402212397     5.1843413998858887
20     1          3.1860823884195337     1.8408477085643435     7.7748133753817958
21     1          3.1943467378989747    -0.0027598887465807    10.3639384332688085
22     1          3.1860823884195337     1.8408477085643435    12.9530625338583043
23     1          1.5830503586552438     2.7453043188823831    -0.0023961156894525
24     1          1.5983259551620728     4.6041664521547245     2.5909841296684428
25     1          1.5830503586552438     2.7453043188823831     5.1843653323238579
26     1          1.5963845557940306     4.6052864902516708     7.7758233242640857
27     1          1.5943962488475694     2.7685111253321262    10.3639384332688085
28     1          1.5963845557940306     4.6052864902516708    12.9520535422735339
29     1         -0.0003944065777285     5.5271879332540470    -0.0041642442065993
30     1         -0.0012502305594986     7.3746007882020370     2.5909841296684428
31     1         -0.0003944065777285     5.5271879332540470     5.1861325035434849
32     1         -0.0012128959562670     7.3723492244379161     7.7758175804789733
33     1         -0.0004116379330661     5.5271975062292347    10.3639384332688085
34     1         -0.0012128959562670     7.3723492244379161    12.9520592860586454
35     1          6.4034368148843495    -0.0009850591468025    -0.0023817562266711
36     1          6.3953725405863278     1.8345898546842194     2.5909841296684428
37     1          6.4034368148843495    -0.0009850591468025     5.1843509728610755
38     1          6.3845598651119513     1.8408323918040435     7.7747961440264577
39     1          6.3777640100262847    -0.0027474438788368    10.3639384332688085
40     1          6.3845598651119513     1.8408323918040435    12.9530797652136425
41     1          4.7860577672064268     2.7637275096308902    -0.0034443564724930
42     1          4.7853072459517207     4.6232559219762868     2.5909841296684428
43     1          4.7860577672064268     2.7637275096308902     5.1854135731068975
44     1          4.7853082032492393     4.6107871217944574     7.7748133753817958
45     1          4.7860702120741712     2.7637208085482592    10.3639384332688085
46     1          4.7853082032492393     4.6107871217944574    12.9530625338583043
47     1          3.2005098193247421     5.5468249772563389    -0.0023961156894525
48     1          3.2299639493819026     7.3931369400577562     2.5909841296684428
49     1          3.2005098193247421     5.5468249772563389     5.1843653323238579
50     1          3.2068289402460670     7.3797835969685934     7.7532894979700302
51     1          3.1860843030145709     5.5253968295964500    10.3639384332688085
52     1          3.2068289402460670     7.3797835969685934    12.9745864112700708
ITEM: TIMESTEP energy, energy_weight, force_weight, nsims
5        -100037.8357273899600841    1    1   5
ITEM: NUMBER OF ATOMS
52        
ITEM: BOX BOUNDS xy xz yz pp pp pp
   -4.7864875937923479      9.5729751875847011     -4.7864875937923479
    0.0000000000000000      8.2904358368280437      0.0000000000000010
    0.0000000000000000     15.5459086072007331      0.0000000000000016
ITEM: ATOMS id type x y z
1      1         -0.0012090667661919     1.8234871180616585     2.5691874224638314
2      1         -0.0004145098256224     0.0002393243796896     5.1726968328677101
3      1         -0.0011621591877728     1.8442020790700733     7.7729533463028480
4      1         -0.0004145098256224     0.0002393243796896    10.3732098597379849
5      1         -0.0012090667661919     1.8234871180616585    12.9767202274393831
6      1         -1.6094526242226026     2.7420581229962733     0.0000000000000000
7      1         -1.6049619415621068     4.6017368310521150     2.5883515614918569
8      1         -1.5938046389809766     2.7639811934733611     5.1882720634979105
9      1         -1.5955124577544415     4.6071369463554310     7.7729533463028480
10     1         -1.5938046389809766     2.7639811934733611    10.3576346291077854
11     1         -1.6049619415621068     4.6017368310521150    12.9575551311138391
12     1         -3.2170366036885882     5.5261033151652930     0.0000000000000000
13     1         -3.2092872802742387     7.3798429494147575     2.5688131191339973
14     1         -3.1901288850313256     5.5289369158208181     5.1882883375557292
15     1         -3.1911139441781273     7.3693509686091652     7.7729533463028480
16     1         -3.1901288850313256     5.5289369158208181    10.3576193123474862
17     1         -3.2092872802742387     7.3798429494147575    12.9770935734716986
18     1          3.1787111975250935     0.0229837561278721     0.0000000000000000
19     1          3.2025766246677416     1.8503603740082464     2.5675533155993109
20     1          3.1897105460156276    -0.0017365376990279     5.1882883375557292
21     1          3.1916844934993081     1.8440718866075221     7.7729533463028480
22     1          3.1897105460156276    -0.0017365376990279    10.3576193123474862
23     1          3.2025766246677416     1.8503603740082464    12.9783533770063855
24     1          1.6086379640341391     2.7419384608064283     0.0000000000000000
25     1          1.6026136907485922     4.6016908807712147     2.5883391166241130
26     1          1.5929440285116128     2.7639811934733611     5.1882950386383602
27     1          1.5931804809987460     4.6071369463554310     7.7729533463028480
28     1          1.5929440285116128     2.7639811934733611    10.3576126112648534
29     1          1.6026136907485922     4.6016908807712147    12.9575685332790993
30     1         -0.0004183390156975     5.5272013354193090     0.0000000000000000
31     1         -0.0012148105513045     7.3795088525807104     2.5883515614918569
32     1         -0.0004221682057725     5.5272032500143471     5.1923453644402278
33     1         -0.0011659883778478     7.3686253370899450     7.7729533463028480
34     1         -0.0004221682057725     5.5272032500143471    10.3535613281654673
35     1         -0.0012148105513045     7.3795088525807104    12.9575551311138391
36     1          6.3935565471932430     0.0227980404092330     0.0000000000000000
37     1          6.3678559807071355     1.8504762070080163     2.5671617809141383
38     1          6.3823954154220379    -0.0017154771536152     5.1882720634979105
39     1          6.3789501016520269     1.8440709293100033     7.7729533463028480
40     1          6.3823954154220379    -0.0017154771536152    10.3576346291077854
41     1          6.3678559807071355     1.8504762070080163    12.9787449116915568
42     1          4.7853168189269075     4.5917464741463521     2.5675533155993109
43     1          4.7860692547766517     2.7637217658457782     5.1726269501488416
44     1          4.7853168189269075     4.6043234489477998     7.7729533463028480
45     1          4.7860692547766517     2.7637217658457782    10.3732806997543729
46     1          4.7853168189269075     4.5917464741463521    12.9783533770063855
47     1          3.2162181143100499     5.5263483833300953     0.0000000000000000
48     1          3.2066968331884782     7.3797433904728056     2.5691874224638314
49     1          3.1892816767272243     5.5289187271679614     5.1882950386383602
50     1          3.1887810101249134     7.3693452248240519     7.7729533463028480
51     1          3.1892816767272243     5.5289187271679614    10.3576126112648534
52     1          3.2066968331884782     7.3797433904728056    12.9767202274393831
