ITEM: TIMESTEP energy, energy_weight, force_weight, nsims
1        -1922.2936902538999675    1    1   1
ITEM: NUMBER OF ATOMS
1         
ITEM: BOX BOUNDS xy xz yz pp pp pp
    0.0000000000000000     25.0000266099568016      0.0000000000000015
    0.0000000000000000     25.0000266099567980      0.0000000000000015
    0.0000000000000000     25.0000266099567980      0.0000000000000015
ITEM: ATOMS id type x y z
1      1          0.0000000000000000     0.0000000000000000     0.0000000000000000
