ITEM: TIMESTEP energy, energy_weight, force_weight, nsims
1        -3847.6448555622519052    1    1   99
ITEM: NUMBER OF ATOMS
2         
ITEM: BOX BOUNDS xy xz yz pp pp pp
   -1.5954958645974493      3.1909917291949004     -1.5954958645974493
    0.0000000000000000      2.7634786122760140      0.0000000000000003
    0.0000000000000000      4.9160482399811212      0.0000000000000005
ITEM: ATOMS id type x y z
1      1          0.0000000000000000     0.0000000000000000     0.0000000000000000
2      1         -0.0000000000000000     1.8423200321481941     2.4580238008913873
ITEM: TIMESTEP energy, energy_weight, force_weight, nsims
2        -3847.6461749067925666    1    1   99
ITEM: NUMBER OF ATOMS
2         
ITEM: BOX BOUNDS xy xz yz pp pp pp
   -1.5954958645974493      3.1909917291949004     -1.5954958645974493
    0.0000000000000000      2.7634786122760140      0.0000000000000003
    0.0000000000000000      4.9216165205485654      0.0000000000000005
ITEM: ATOMS id type x y z
1      1          0.0000000000000000     0.0000000000000000     0.0000000000000000
2      1         -0.0000000000000000     1.8423200321481941     2.4608088984726288
ITEM: TIMESTEP energy, energy_weight, force_weight, nsims
3        -3847.6474605092034835    1    1   99
ITEM: NUMBER OF ATOMS
2         
ITEM: BOX BOUNDS xy xz yz pp pp pp
   -1.5954958645974493      3.1909917291949004     -1.5954958645974493
    0.0000000000000000      2.7634786122760140      0.0000000000000003
    0.0000000000000000      4.9271816101242827      0.0000000000000005
ITEM: ATOMS id type x y z
1      1          0.0000000000000000     0.0000000000000000     0.0000000000000000
2      1         -0.0000000000000000     1.8423200321481941     2.4635911241613138
ITEM: TIMESTEP energy, energy_weight, force_weight, nsims
4        -3847.6487149545650936    1    1   99
ITEM: NUMBER OF ATOMS
2         
ITEM: BOX BOUNDS xy xz yz pp pp pp
   -1.5954958645974493      3.1909917291949004     -1.5954958645974493
    0.0000000000000000      2.7634786122760140      0.0000000000000003
    0.0000000000000000      4.9327403177165401      0.0000000000000005
ITEM: ATOMS id type x y z
1      1          0.0000000000000000     0.0000000000000000     0.0000000000000000
2      1         -0.0000000000000000     1.8423200321481941     2.4663701588582700
ITEM: TIMESTEP energy, energy_weight, force_weight, nsims
5        -3847.6499371544218775    1    1   99
ITEM: NUMBER OF ATOMS
2         
ITEM: BOX BOUNDS xy xz yz pp pp pp
   -1.5954958645974493      3.1909917291949004     -1.5954958645974493
    0.0000000000000000      2.7634786122760140      0.0000000000000003
    0.0000000000000000      4.9382926433253393      0.0000000000000005
ITEM: ATOMS id type x y z
1      1          0.0000000000000000     0.0000000000000000     0.0000000000000000
2      1         -0.0000000000000000     1.8423200321481941     2.4691460025634964
ITEM: TIMESTEP energy, energy_weight, force_weight, nsims
6        -3847.6511268366607510    1    1   99
ITEM: NUMBER OF ATOMS
2         
ITEM: BOX BOUNDS xy xz yz pp pp pp
   -1.5954958645974493      3.1909917291949004     -1.5954958645974493
    0.0000000000000000      2.7634786122760140      0.0000000000000003
    0.0000000000000000      4.9438385869506796      0.0000000000000005
ITEM: ATOMS id type x y z
1      1          0.0000000000000000     0.0000000000000000     0.0000000000000000
2      1         -0.0000000000000000     1.8423200321481941     2.4719189743761665
ITEM: TIMESTEP energy, energy_weight, force_weight, nsims
7        -3847.6522844094524771    1    1   99
ITEM: NUMBER OF ATOMS
2         
ITEM: BOX BOUNDS xy xz yz pp pp pp
   -1.5954958645974493      3.1909917291949004     -1.5954958645974493
    0.0000000000000000      2.7634786122760140      0.0000000000000003
    0.0000000000000000      4.9493781485925616      0.0000000000000005
ITEM: ATOMS id type x y z
1      1          0.0000000000000000     0.0000000000000000     0.0000000000000000
2      1         -0.0000000000000000     1.8423200321481941     2.4746884360979351
ITEM: TIMESTEP energy, energy_weight, force_weight, nsims
8        -3847.6534120497080949    1    1   99
ITEM: NUMBER OF ATOMS
2         
ITEM: BOX BOUNDS xy xz yz pp pp pp
   -1.5954958645974493      3.1909917291949004     -1.5954958645974493
    0.0000000000000000      2.7634786122760140      0.0000000000000003
    0.0000000000000000      4.9549113282509856      0.0000000000000005
ITEM: ATOMS id type x y z
1      1          0.0000000000000000     0.0000000000000000     0.0000000000000000
2      1         -0.0000000000000000     1.8423200321481941     2.4774550259271471
ITEM: TIMESTEP energy, energy_weight, force_weight, nsims
9        -3847.6545079886873282    1    1   99
ITEM: NUMBER OF ATOMS
2         
ITEM: BOX BOUNDS xy xz yz pp pp pp
   -1.5954958645974493      3.1909917291949004     -1.5954958645974493
    0.0000000000000000      2.7634786122760140      0.0000000000000003
    0.0000000000000000      4.9604381259259513      0.0000000000000005
ITEM: ATOMS id type x y z
1      1          0.0000000000000000     0.0000000000000000     0.0000000000000000
2      1         -0.0000000000000000     1.8423200321481941     2.4802184247646295
ITEM: TIMESTEP energy, energy_weight, force_weight, nsims
10       -3847.6555738590741385    1    1   99
ITEM: NUMBER OF ATOMS
2         
ITEM: BOX BOUNDS xy xz yz pp pp pp
   -1.5954958645974493      3.1909917291949004     -1.5954958645974493
    0.0000000000000000      2.7634786122760140      0.0000000000000003
    0.0000000000000000      4.9659585416174590      0.0000000000000005
ITEM: ATOMS id type x y z
1      1          0.0000000000000000     0.0000000000000000     0.0000000000000000
2      1         -0.0000000000000000     1.8423200321481941     2.4829789517095562
ITEM: TIMESTEP energy, energy_weight, force_weight, nsims
11       -3847.6566087084684114    1    1   99
ITEM: NUMBER OF ATOMS
2         
ITEM: BOX BOUNDS xy xz yz pp pp pp
   -1.5954958645974493      3.1909917291949004     -1.5954958645974493
    0.0000000000000000      2.7634786122760140      0.0000000000000003
    0.0000000000000000      4.9714725753255058      0.0000000000000005
ITEM: ATOMS id type x y z
1      1          0.0000000000000000     0.0000000000000000     0.0000000000000000
2      1         -0.0000000000000000     1.8423200321481941     2.4857362876627533
ITEM: TIMESTEP energy, energy_weight, force_weight, nsims
12       -3847.6576137613847095    1    1   99
ITEM: NUMBER OF ATOMS
2         
ITEM: BOX BOUNDS xy xz yz pp pp pp
   -1.5954958645974493      3.1909917291949004     -1.5954958645974493
    0.0000000000000000      2.7634786122760140      0.0000000000000003
    0.0000000000000000      4.9769802270500971      0.0000000000000005
ITEM: ATOMS id type x y z
1      1          0.0000000000000000     0.0000000000000000     0.0000000000000000
2      1         -0.0000000000000000     1.8423200321481941     2.4884904326242214
ITEM: TIMESTEP energy, energy_weight, force_weight, nsims
13       -3847.6585886096509057    1    1   99
ITEM: NUMBER OF ATOMS
2         
ITEM: BOX BOUNDS xy xz yz pp pp pp
   -1.5954958645974493      3.1909917291949004     -1.5954958645974493
    0.0000000000000000      2.7634786122760140      0.0000000000000003
    0.0000000000000000      4.9824846877829581      0.0000000000000005
ITEM: ATOMS id type x y z
1      1          0.0000000000000000     0.0000000000000000     0.0000000000000000
2      1         -0.0000000000000000     1.8423200321481941     2.4912417056931337
ITEM: TIMESTEP energy, energy_weight, force_weight, nsims
14       -3847.6595347498946467    1    1   99
ITEM: NUMBER OF ATOMS
2         
ITEM: BOX BOUNDS xy xz yz pp pp pp
   -1.5954958645974493      3.1909917291949004     -1.5954958645974493
    0.0000000000000000      2.7634786122760140      0.0000000000000003
    0.0000000000000000      4.9879795755406322      0.0000000000000005
ITEM: ATOMS id type x y z
1      1          0.0000000000000000     0.0000000000000000     0.0000000000000000
2      1         -0.0000000000000000     1.8423200321481941     2.4939901068694890
ITEM: TIMESTEP energy, energy_weight, force_weight, nsims
15       -3847.6604509576022792    1    1   99
ITEM: NUMBER OF ATOMS
2         
ITEM: BOX BOUNDS xy xz yz pp pp pp
   -1.5954958645974493      3.1909917291949004     -1.5954958645974493
    0.0000000000000000      2.7634786122760140      0.0000000000000003
    0.0000000000000000      4.9934712723065777      0.0000000000000005
ITEM: ATOMS id type x y z
1      1          0.0000000000000000     0.0000000000000000     0.0000000000000000
2      1         -0.0000000000000000     1.8423200321481941     2.4967353170541156
ITEM: TIMESTEP energy, energy_weight, force_weight, nsims
16       -3847.6613376409459306    1    1   99
ITEM: NUMBER OF ATOMS
2         
ITEM: BOX BOUNDS xy xz yz pp pp pp
   -1.5954958645974493      3.1909917291949004     -1.5954958645974493
    0.0000000000000000      2.7634786122760140      0.0000000000000003
    0.0000000000000000      4.9989533960973338      0.0000000000000005
ITEM: ATOMS id type x y z
1      1          0.0000000000000000     0.0000000000000000     0.0000000000000000
2      1         -0.0000000000000000     1.8423200321481941     2.4994773362470131
ITEM: TIMESTEP energy, energy_weight, force_weight, nsims
17       -3847.6621973850064933    1    1   99
ITEM: NUMBER OF ATOMS
2         
ITEM: BOX BOUNDS xy xz yz pp pp pp
   -1.5954958645974493      3.1909917291949004     -1.5954958645974493
    0.0000000000000000      2.7634786122760140      0.0000000000000003
    0.0000000000000000      5.0044323288963612      0.0000000000000005
ITEM: ATOMS id type x y z
1      1          0.0000000000000000     0.0000000000000000     0.0000000000000000
2      1         -0.0000000000000000     1.8423200321481941     2.5022164835473535
ITEM: TIMESTEP energy, energy_weight, force_weight, nsims
18       -3847.6630273325877170    1    1   99
ITEM: NUMBER OF ATOMS
2         
ITEM: BOX BOUNDS xy xz yz pp pp pp
   -1.5954958645974493      3.1909917291949004     -1.5954958645974493
    0.0000000000000000      2.7634786122760140      0.0000000000000003
    0.0000000000000000      5.0099048797119305      0.0000000000000005
ITEM: ATOMS id type x y z
1      1          0.0000000000000000     0.0000000000000000     0.0000000000000000
2      1         -0.0000000000000000     1.8423200321481941     2.5049527589551381
ITEM: TIMESTEP energy, energy_weight, force_weight, nsims
19       -3847.6638300687741321    1    1   99
ITEM: NUMBER OF ATOMS
2         
ITEM: BOX BOUNDS xy xz yz pp pp pp
   -1.5954958645974493      3.1909917291949004     -1.5954958645974493
    0.0000000000000000      2.7634786122760140      0.0000000000000003
    0.0000000000000000      5.0153710485440417      0.0000000000000005
ITEM: ATOMS id type x y z
1      1          0.0000000000000000     0.0000000000000000     0.0000000000000000
2      1         -0.0000000000000000     1.8423200321481941     2.5076858433711937
ITEM: TIMESTEP energy, energy_weight, force_weight, nsims
20       -3847.6646049132787084    1    1   99
ITEM: NUMBER OF ATOMS
2         
ITEM: BOX BOUNDS xy xz yz pp pp pp
   -1.5954958645974493      3.1909917291949004     -1.5954958645974493
    0.0000000000000000      2.7634786122760140      0.0000000000000003
    0.0000000000000000      5.0208308353926938      0.0000000000000005
ITEM: ATOMS id type x y z
1      1          0.0000000000000000     0.0000000000000000     0.0000000000000000
2      1         -0.0000000000000000     1.8423200321481941     2.5104160558946931
ITEM: TIMESTEP energy, energy_weight, force_weight, nsims
21       -3847.6653514579320472    1    1   99
ITEM: NUMBER OF ATOMS
2         
ITEM: BOX BOUNDS xy xz yz pp pp pp
   -1.5954958645974493      3.1909917291949004     -1.5954958645974493
    0.0000000000000000      2.7634786122760140      0.0000000000000003
    0.0000000000000000      5.0262874312496173      0.0000000000000005
ITEM: ATOMS id type x y z
1      1          0.0000000000000000     0.0000000000000000     0.0000000000000000
2      1         -0.0000000000000000     1.8423200321481941     2.5131433965256358
ITEM: TIMESTEP energy, energy_weight, force_weight, nsims
22       -3847.6660710633022973    1    1   99
ITEM: NUMBER OF ATOMS
2         
ITEM: BOX BOUNDS xy xz yz pp pp pp
   -1.5954958645974493      3.1909917291949004     -1.5954958645974493
    0.0000000000000000      2.7634786122760140      0.0000000000000003
    0.0000000000000000      5.0317344541313531      0.0000000000000005
ITEM: ATOMS id type x y z
1      1          0.0000000000000000     0.0000000000000000     0.0000000000000000
2      1         -0.0000000000000000     1.8423200321481941     2.5158675461648490
ITEM: TIMESTEP energy, energy_weight, force_weight, nsims
23       -3847.6667630491065211    1    1   99
ITEM: NUMBER OF ATOMS
2         
ITEM: BOX BOUNDS xy xz yz pp pp pp
   -1.5954958645974493      3.1909917291949004     -1.5954958645974493
    0.0000000000000000      2.7634786122760140      0.0000000000000003
    0.0000000000000000      5.0371782860213594      0.0000000000000005
ITEM: ATOMS id type x y z
1      1          0.0000000000000000     0.0000000000000000     0.0000000000000000
2      1         -0.0000000000000000     1.8423200321481941     2.5185888239115064
ITEM: TIMESTEP energy, energy_weight, force_weight, nsims
24       -3847.6674287759128674    1    1   99
ITEM: NUMBER OF ATOMS
2         
ITEM: BOX BOUNDS xy xz yz pp pp pp
   -1.5954958645974493      3.1909917291949004     -1.5954958645974493
    0.0000000000000000      2.7634786122760140      0.0000000000000003
    0.0000000000000000      5.0426157359279076      0.0000000000000005
ITEM: ATOMS id type x y z
1      1          0.0000000000000000     0.0000000000000000     0.0000000000000000
2      1         -0.0000000000000000     1.8423200321481941     2.5213072297656076
ITEM: TIMESTEP energy, energy_weight, force_weight, nsims
25       -3847.6680670192085927    1    1   99
ITEM: NUMBER OF ATOMS
2         
ITEM: BOX BOUNDS xy xz yz pp pp pp
   -1.5954958645974493      3.1909917291949004     -1.5954958645974493
    0.0000000000000000      2.7634786122760140      0.0000000000000003
    0.0000000000000000      5.0480468038509967      0.0000000000000005
ITEM: ATOMS id type x y z
1      1          0.0000000000000000     0.0000000000000000     0.0000000000000000
2      1         -0.0000000000000000     1.8423200321481941     2.5240227637271531
ITEM: TIMESTEP energy, energy_weight, force_weight, nsims
26       -3847.6686787313942659    1    1   99
ITEM: NUMBER OF ATOMS
2         
ITEM: BOX BOUNDS xy xz yz pp pp pp
   -1.5954958645974493      3.1909917291949004     -1.5954958645974493
    0.0000000000000000      2.7634786122760140      0.0000000000000003
    0.0000000000000000      5.0534714897906277      0.0000000000000005
ITEM: ATOMS id type x y z
1      1          0.0000000000000000     0.0000000000000000     0.0000000000000000
2      1         -0.0000000000000000     1.8423200321481941     2.5267351066969685
ITEM: TIMESTEP energy, energy_weight, force_weight, nsims
27       -3847.6692651369803571    1    1   99
ITEM: NUMBER OF ATOMS
2         
ITEM: BOX BOUNDS xy xz yz pp pp pp
   -1.5954958645974493      3.1909917291949004     -1.5954958645974493
    0.0000000000000000      2.7634786122760140      0.0000000000000003
    0.0000000000000000      5.0588897937468014      0.0000000000000005
ITEM: ATOMS id type x y z
1      1          0.0000000000000000     0.0000000000000000     0.0000000000000000
2      1         -0.0000000000000000     1.8423200321481941     2.5294448968734007
ITEM: TIMESTEP energy, energy_weight, force_weight, nsims
28       -3847.6698248753987173    1    1   99
ITEM: NUMBER OF ATOMS
2         
ITEM: BOX BOUNDS xy xz yz pp pp pp
   -1.5954958645974493      3.1909917291949004     -1.5954958645974493
    0.0000000000000000      2.7634786122760140      0.0000000000000003
    0.0000000000000000      5.0643017157195160      0.0000000000000005
ITEM: ATOMS id type x y z
1      1          0.0000000000000000     0.0000000000000000     0.0000000000000000
2      1         -0.0000000000000000     1.8423200321481941     2.5321514960581037
ITEM: TIMESTEP energy, energy_weight, force_weight, nsims
29       -3847.6703593072188596    1    1   99
ITEM: NUMBER OF ATOMS
2         
ITEM: BOX BOUNDS xy xz yz pp pp pp
   -1.5954958645974493      3.1909917291949004     -1.5954958645974493
    0.0000000000000000      2.7634786122760140      0.0000000000000003
    0.0000000000000000      5.0697104467005021      0.0000000000000005
ITEM: ATOMS id type x y z
1      1          0.0000000000000000     0.0000000000000000     0.0000000000000000
2      1         -0.0000000000000000     1.8423200321481941     2.5348555424494239
ITEM: TIMESTEP energy, energy_weight, force_weight, nsims
30       -3847.6708676160992582    1    1   99
ITEM: NUMBER OF ATOMS
2         
ITEM: BOX BOUNDS xy xz yz pp pp pp
   -1.5954958645974493      3.1909917291949004     -1.5954958645974493
    0.0000000000000000      2.7634786122760140      0.0000000000000003
    0.0000000000000000      5.0751127956980273      0.0000000000000005
ITEM: ATOMS id type x y z
1      1          0.0000000000000000     0.0000000000000000     0.0000000000000000
2      1         -0.0000000000000000     1.8423200321481941     2.5375563978490137
ITEM: TIMESTEP energy, energy_weight, force_weight, nsims
31       -3847.6713515707788247    1    1   99
ITEM: NUMBER OF ATOMS
2         
ITEM: BOX BOUNDS xy xz yz pp pp pp
   -1.5954958645974493      3.1909917291949004     -1.5954958645974493
    0.0000000000000000      2.7634786122760140      0.0000000000000003
    0.0000000000000000      5.0805087627120971      0.0000000000000005
ITEM: ATOMS id type x y z
1      1          0.0000000000000000     0.0000000000000000     0.0000000000000000
2      1         -0.0000000000000000     1.8423200321481941     2.5402543813560485
ITEM: TIMESTEP energy, energy_weight, force_weight, nsims
32       -3847.6718098106898651    1    1   99
ITEM: NUMBER OF ATOMS
2         
ITEM: BOX BOUNDS xy xz yz pp pp pp
   -1.5954958645974493      3.1909917291949004     -1.5954958645974493
    0.0000000000000000      2.7634786122760140      0.0000000000000003
    0.0000000000000000      5.0858983477427069      0.0000000000000005
ITEM: ATOMS id type x y z
1      1          0.0000000000000000     0.0000000000000000     0.0000000000000000
2      1         -0.0000000000000000     1.8423200321481941     2.5429498120696996
ITEM: TIMESTEP energy, energy_weight, force_weight, nsims
33       -3847.6722436964009830    1    1   99
ITEM: NUMBER OF ATOMS
2         
ITEM: BOX BOUNDS xy xz yz pp pp pp
   -1.5954958645974493      3.1909917291949004     -1.5954958645974493
    0.0000000000000000      2.7634786122760140      0.0000000000000003
    0.0000000000000000      5.0912847417815881      0.0000000000000005
ITEM: ATOMS id type x y z
1      1          0.0000000000000000     0.0000000000000000     0.0000000000000000
2      1         -0.0000000000000000     1.8423200321481941     2.5456420517916212
ITEM: TIMESTEP energy, energy_weight, force_weight, nsims
34       -3847.6726528197414154    1    1   99
ITEM: NUMBER OF ATOMS
2         
ITEM: BOX BOUNDS xy xz yz pp pp pp
   -1.5954958645974493      3.1909917291949004     -1.5954958645974493
    0.0000000000000000      2.7634786122760140      0.0000000000000003
    0.0000000000000000      5.0966647538370111      0.0000000000000005
ITEM: ATOMS id type x y z
1      1          0.0000000000000000     0.0000000000000000     0.0000000000000000
2      1         -0.0000000000000000     1.8423200321481941     2.5483317387201594
ITEM: TIMESTEP energy, energy_weight, force_weight, nsims
35       -3847.6730378609977379    1    1   99
ITEM: NUMBER OF ATOMS
2         
ITEM: BOX BOUNDS xy xz yz pp pp pp
   -1.5954958645974493      3.1909917291949004     -1.5954958645974493
    0.0000000000000000      2.7634786122760140      0.0000000000000003
    0.0000000000000000      5.1020351929172456      0.0000000000000005
ITEM: ATOMS id type x y z
1      1          0.0000000000000000     0.0000000000000000     0.0000000000000000
2      1         -0.0000000000000000     1.8423200321481941     2.5510182346569685
ITEM: TIMESTEP energy, energy_weight, force_weight, nsims
36       -3847.6733988201667671    1    1   99
ITEM: NUMBER OF ATOMS
2         
ITEM: BOX BOUNDS xy xz yz pp pp pp
   -1.5954958645974493      3.1909917291949004     -1.5954958645974493
    0.0000000000000000      2.7634786122760140      0.0000000000000003
    0.0000000000000000      5.1074056319974810      0.0000000000000005
ITEM: ATOMS id type x y z
1      1          0.0000000000000000     0.0000000000000000     0.0000000000000000
2      1         -0.0000000000000000     1.8423200321481941     2.5537021778003948
ITEM: TIMESTEP energy, energy_weight, force_weight, nsims
37       -3847.6737352890800139    1    1   99
ITEM: NUMBER OF ATOMS
2         
ITEM: BOX BOUNDS xy xz yz pp pp pp
   -1.5954958645974493      3.1909917291949004     -1.5954958645974493
    0.0000000000000000      2.7634786122760140      0.0000000000000003
    0.0000000000000000      5.1127664981025287      0.0000000000000005
ITEM: ATOMS id type x y z
1      1          0.0000000000000000     0.0000000000000000     0.0000000000000000
2      1         -0.0000000000000000     1.8423200321481941     2.5563832490512644
ITEM: TIMESTEP energy, energy_weight, force_weight, nsims
38       -3847.6740491725345237    1    1   99
ITEM: NUMBER OF ATOMS
2         
ITEM: BOX BOUNDS xy xz yz pp pp pp
   -1.5954958645974493      3.1909917291949004     -1.5954958645974493
    0.0000000000000000      2.7634786122760140      0.0000000000000003
    0.0000000000000000      5.1181241732158460      0.0000000000000005
ITEM: ATOMS id type x y z
1      1          0.0000000000000000     0.0000000000000000     0.0000000000000000
2      1         -0.0000000000000000     1.8423200321481941     2.5590614484095773
ITEM: TIMESTEP energy, energy_weight, force_weight, nsims
39       -3847.6743393820747769    1    1   99
ITEM: NUMBER OF ATOMS
2         
ITEM: BOX BOUNDS xy xz yz pp pp pp
   -1.5954958645974493      3.1909917291949004     -1.5954958645974493
    0.0000000000000000      2.7634786122760140      0.0000000000000003
    0.0000000000000000      5.1234754663457061      0.0000000000000005
ITEM: ATOMS id type x y z
1      1          0.0000000000000000     0.0000000000000000     0.0000000000000000
2      1         -0.0000000000000000     1.8423200321481941     2.5617370949745077
ITEM: TIMESTEP energy, energy_weight, force_weight, nsims
40       -3847.6746068700981596    1    1   99
ITEM: NUMBER OF ATOMS
2         
ITEM: BOX BOUNDS xy xz yz pp pp pp
   -1.5954958645974493      3.1909917291949004     -1.5954958645974493
    0.0000000000000000      2.7634786122760140      0.0000000000000003
    0.0000000000000000      5.1288203774921080      0.0000000000000005
ITEM: ATOMS id type x y z
1      1          0.0000000000000000     0.0000000000000000     0.0000000000000000
2      1         -0.0000000000000000     1.8423200321481941     2.5644095505477078
ITEM: TIMESTEP energy, energy_weight, force_weight, nsims
41       -3847.6748505481505163    1    1   99
ITEM: NUMBER OF ATOMS
2         
ITEM: BOX BOUNDS xy xz yz pp pp pp
   -1.5954958645974493      3.1909917291949004     -1.5954958645974493
    0.0000000000000000      2.7634786122760140      0.0000000000000003
    0.0000000000000000      5.1341589066550499      0.0000000000000005
ITEM: ATOMS id type x y z
1      1          0.0000000000000000     0.0000000000000000     0.0000000000000000
2      1         -0.0000000000000000     1.8423200321481941     2.5670794533275250
ITEM: TIMESTEP energy, energy_weight, force_weight, nsims
42       -3847.6750715046873665    1    1   99
ITEM: NUMBER OF ATOMS
2         
ITEM: BOX BOUNDS xy xz yz pp pp pp
   -1.5954958645974493      3.1909917291949004     -1.5954958645974493
    0.0000000000000000      2.7634786122760140      0.0000000000000003
    0.0000000000000000      5.1394942448262650      0.0000000000000005
ITEM: ATOMS id type x y z
1      1          0.0000000000000000     0.0000000000000000     0.0000000000000000
2      1         -0.0000000000000000     1.8423200321481941     2.5697464842147868
ITEM: TIMESTEP energy, energy_weight, force_weight, nsims
43       -3847.6752711002777687    1    1   99
ITEM: NUMBER OF ATOMS
2         
ITEM: BOX BOUNDS xy xz yz pp pp pp
   -1.5954958645974493      3.1909917291949004     -1.5954958645974493
    0.0000000000000000      2.7634786122760140      0.0000000000000003
    0.0000000000000000      5.1448232010140202      0.0000000000000005
ITEM: ATOMS id type x y z
1      1          0.0000000000000000     0.0000000000000000     0.0000000000000000
2      1         -0.0000000000000000     1.8423200321481941     2.5724109623086640
ITEM: TIMESTEP energy, energy_weight, force_weight, nsims
44       -3847.6754479743522097    1    1   99
ITEM: NUMBER OF ATOMS
2         
ITEM: BOX BOUNDS xy xz yz pp pp pp
   -1.5954958645974493      3.1909917291949004     -1.5954958645974493
    0.0000000000000000      2.7634786122760140      0.0000000000000003
    0.0000000000000000      5.1501457752183173      0.0000000000000005
ITEM: ATOMS id type x y z
1      1          0.0000000000000000     0.0000000000000000     0.0000000000000000
2      1         -0.0000000000000000     1.8423200321481941     2.5750725685099858
ITEM: TIMESTEP energy, energy_weight, force_weight, nsims
45       -3847.6756032153675733    1    1   99
ITEM: NUMBER OF ATOMS
2         
ITEM: BOX BOUNDS xy xz yz pp pp pp
   -1.5954958645974493      3.1909917291949004     -1.5954958645974493
    0.0000000000000000      2.7634786122760140      0.0000000000000003
    0.0000000000000000      5.1554619674391553      0.0000000000000005
ITEM: ATOMS id type x y z
1      1          0.0000000000000000     0.0000000000000000     0.0000000000000000
2      1         -0.0000000000000000     1.8423200321481941     2.5777313028187510
ITEM: TIMESTEP energy, energy_weight, force_weight, nsims
46       -3847.6757364151517322    1    1   99
ITEM: NUMBER OF ATOMS
2         
ITEM: BOX BOUNDS xy xz yz pp pp pp
   -1.5954958645974493      3.1909917291949004     -1.5954958645974493
    0.0000000000000000      2.7634786122760140      0.0000000000000003
    0.0000000000000000      5.1607749686682656      0.0000000000000005
ITEM: ATOMS id type x y z
1      1          0.0000000000000000     0.0000000000000000     0.0000000000000000
2      1         -0.0000000000000000     1.8423200321481941     2.5803874843341328
ITEM: TIMESTEP energy, energy_weight, force_weight, nsims
47       -3847.6758485261038913    1    1   99
ITEM: NUMBER OF ATOMS
2         
ITEM: BOX BOUNDS xy xz yz pp pp pp
   -1.5954958645974493      3.1909917291949004     -1.5954958645974493
    0.0000000000000000      2.7634786122760140      0.0000000000000003
    0.0000000000000000      5.1660815879139159      0.0000000000000005
ITEM: ATOMS id type x y z
1      1          0.0000000000000000     0.0000000000000000     0.0000000000000000
2      1         -0.0000000000000000     1.8423200321481941     2.5830407939569580
ITEM: TIMESTEP energy, energy_weight, force_weight, nsims
48       -3847.6759392761096024    1    1   99
ITEM: NUMBER OF ATOMS
2         
ITEM: BOX BOUNDS xy xz yz pp pp pp
   -1.5954958645974493      3.1909917291949004     -1.5954958645974493
    0.0000000000000000      2.7634786122760140      0.0000000000000003
    0.0000000000000000      5.1713818251761099      0.0000000000000005
ITEM: ATOMS id type x y z
1      1          0.0000000000000000     0.0000000000000000     0.0000000000000000
2      1         -0.0000000000000000     1.8423200321481941     2.5856915507864002
ITEM: TIMESTEP energy, energy_weight, force_weight, nsims
49       -3847.6760093454549860    1    1   99
ITEM: NUMBER OF ATOMS
2         
ITEM: BOX BOUNDS xy xz yz pp pp pp
   -1.5954958645974493      3.1909917291949004     -1.5954958645974493
    0.0000000000000000      2.7634786122760140      0.0000000000000003
    0.0000000000000000      5.1766788714465735      0.0000000000000005
ITEM: ATOMS id type x y z
1      1          0.0000000000000000     0.0000000000000000     0.0000000000000000
2      1         -0.0000000000000000     1.8423200321481941     2.5883394357232867
ITEM: TIMESTEP energy, energy_weight, force_weight, nsims
50       -3847.6760585980819087    1    1   99
ITEM: NUMBER OF ATOMS
2         
ITEM: BOX BOUNDS xy xz yz pp pp pp
   -1.5954958645974493      3.1909917291949004     -1.5954958645974493
    0.0000000000000000      2.7634786122760140      0.0000000000000003
    0.0000000000000000      5.1819727267253075      0.0000000000000005
ITEM: ATOMS id type x y z
1      1          0.0000000000000000     0.0000000000000000     0.0000000000000000
2      1         -0.0000000000000000     1.8423200321481941     2.5909870015609995
ITEM: TIMESTEP energy, energy_weight, force_weight, nsims
51       -3847.6760871700480493    1    1   99
ITEM: NUMBER OF ATOMS
2         
ITEM: BOX BOUNDS xy xz yz pp pp pp
   -1.5954958645974493      3.1909917291949004     -1.5954958645974493
    0.0000000000000000      2.7634786122760140      0.0000000000000003
    0.0000000000000000      5.1872538180371253      0.0000000000000006
ITEM: ATOMS id type x y z
1      1          0.0000000000000000     0.0000000000000000     0.0000000000000000
2      1         -0.0000000000000000     1.8423200321481941     2.5936269090185626
ITEM: TIMESTEP energy, energy_weight, force_weight, nsims
52       -3847.6760962858652420    1    1   99
ITEM: NUMBER OF ATOMS
2         
ITEM: BOX BOUNDS xy xz yz pp pp pp
   -1.5954958645974493      3.1909917291949004     -1.5954958645974493
    0.0000000000000000      2.7634786122760140      0.0000000000000003
    0.0000000000000000      5.1925349093489430      0.0000000000000006
ITEM: ATOMS id type x y z
1      1          0.0000000000000000     0.0000000000000000     0.0000000000000000