ITEM: TIMESTEP energy, energy_weight, force_weight, nsims
1        -3847.6442653470694495    1    1   98
ITEM: NUMBER OF ATOMS
2         
ITEM: BOX BOUNDS xy xz yz pp pp pp
   -1.5136321441771501      3.0272642883543002     -1.5136321441771501
    0.0000000000000000      2.7635017781742777      0.0000000000000003
    0.0000000000000000      5.1820104635191235      0.0000000000000005
ITEM: ATOMS id type x y z
1      1          0.0000000000000000     0.0000000000000000     0.0000000000000000
2      1         -0.0000000000000000     1.8423343169652329     2.5910049290331330
ITEM: TIMESTEP energy, energy_weight, force_weight, nsims
2        -3847.6456295904145009    1    1   98
ITEM: NUMBER OF ATOMS
2         
ITEM: BOX BOUNDS xy xz yz pp pp pp
   -1.5153255113739497      3.0306510227479002     -1.5153255113739497
    0.0000000000000000      2.7634627672803997      0.0000000000000003
    0.0000000000000000      5.1819344060373149      0.0000000000000005
ITEM: ATOMS id type x y z
1      1          0.0000000000000000     0.0000000000000000     0.0000000000000000
2      1         -0.0000000000000000     1.8423079053900617     2.5909675060837594
ITEM: TIMESTEP energy, energy_weight, force_weight, nsims
3        -3847.6469572344317385    1    1   98
ITEM: NUMBER OF ATOMS
2         
ITEM: BOX BOUNDS xy xz yz pp pp pp
   -1.5170453374331994      3.0340906748664001     -1.5170453374331994
    0.0000000000000000      2.7634740593937166      0.0000000000000003
    0.0000000000000000      5.1819568386017476      0.0000000000000005
ITEM: ATOMS id type x y z
1      1          0.0000000000000000     0.0000000000000000     0.0000000000000000
2      1         -0.0000000000000000     1.8423159384594547     2.5909790261190087
ITEM: TIMESTEP energy, energy_weight, force_weight, nsims
4        -3847.6482490954631430    1    1   98
ITEM: NUMBER OF ATOMS
2         
ITEM: BOX BOUNDS xy xz yz pp pp pp
   -1.5187651634924499      3.0375303269849003     -1.5187651634924499
    0.0000000000000000      2.7634904159449762      0.0000000000000003
    0.0000000000000000      5.1819872499419883      0.0000000000000005
ITEM: ATOMS id type x y z
1      1          0.0000000000000000     0.0000000000000000     0.0000000000000000
2      1         -0.0000000000000000     1.8423262352062411     2.5909936249709942
ITEM: TIMESTEP energy, energy_weight, force_weight, nsims
5        -3847.6495065340782276    1    1   98
ITEM: NUMBER OF ATOMS
2         
ITEM: BOX BOUNDS xy xz yz pp pp pp
   -1.5204585306892500      3.0409170613785004     -1.5204585306892500
    0.0000000000000000      2.7634607477812643      0.0000000000000003
    0.0000000000000000      5.1819324958661985      0.0000000000000005
ITEM: ATOMS id type x y z
1      1          0.0000000000000000     0.0000000000000000     0.0000000000000000
2      1         -0.0000000000000000     1.8423070638236074     2.5909662479330997
ITEM: TIMESTEP energy, energy_weight, force_weight, nsims
6        -3847.6507303666194275    1    1   98
ITEM: NUMBER OF ATOMS
2         
ITEM: BOX BOUNDS xy xz yz pp pp pp
   -1.5221783567484994      3.0443567134970002     -1.5221783567484994
    0.0000000000000000      2.7634843631097668      0.0000000000000003
    0.0000000000000000      5.1819761347326265      0.0000000000000005
ITEM: ATOMS id type x y z
1      1          0.0000000000000000     0.0000000000000000     0.0000000000000000
2      1         -0.0000000000000000     1.8423219954328303     2.5909874584949706
ITEM: TIMESTEP energy, energy_weight, force_weight, nsims
7        -3847.6519189604027815    1    1   98
ITEM: NUMBER OF ATOMS
2         
ITEM: BOX BOUNDS xy xz yz pp pp pp
   -1.5238717239452999      3.0477434478906003     -1.5238717239452999
    0.0000000000000000      2.7634621300451570      0.0000000000000003
    0.0000000000000000      5.1819318927628881      0.0000000000000005
ITEM: ATOMS id type x y z
1      1          0.0000000000000000     0.0000000000000000     0.0000000000000000
2      1         -0.0000000000000000     1.8423072739651847     2.5909665559301338
ITEM: TIMESTEP energy, energy_weight, force_weight, nsims
8        -3847.6530746283960980    1    1   98
ITEM: NUMBER OF ATOMS
2         
ITEM: BOX BOUNDS xy xz yz pp pp pp
   -1.5255915500045500      3.0511831000091005     -1.5255915500045500
    0.0000000000000000      2.7634900966923421      0.0000000000000003
    0.0000000000000000      5.1819890226328544      0.0000000000000005
ITEM: ATOMS id type x y z
1      1          0.0000000000000000     0.0000000000000000     0.0000000000000000
2      1         -0.0000000000000000     1.8423269345404345     2.5909942061981175
ITEM: TIMESTEP energy, energy_weight, force_weight, nsims
9        -3847.6541968263722993    1    1   98
ITEM: NUMBER OF ATOMS
2         
ITEM: BOX BOUNDS xy xz yz pp pp pp
   -1.5272849172013498      3.0545698344027006     -1.5272849172013498
    0.0000000000000000      2.7634754383237921      0.0000000000000003
    0.0000000000000000      5.1819585958406380      0.0000000000000005
ITEM: ATOMS id type x y z
1      1          0.0000000000000000     0.0000000000000000     0.0000000000000000
2      1         -0.0000000000000000     1.8423167552445385     2.5909799088342864
ITEM: TIMESTEP energy, energy_weight, force_weight, nsims
10       -3847.6552870509585773    1    1   98
ITEM: NUMBER OF ATOMS
2         
ITEM: BOX BOUNDS xy xz yz pp pp pp
   -1.5289782843981496      3.0579565687963002     -1.5289782843981496
    0.0000000000000000      2.7634631193949417      0.0000000000000003
    0.0000000000000000      5.1819367525679878      0.0000000000000005
ITEM: ATOMS id type x y z
1      1          0.0000000000000000     0.0000000000000000     0.0000000000000000
2      1         -0.0000000000000000     1.8423090520589507     2.5909689878753084
ITEM: TIMESTEP energy, energy_weight, force_weight, nsims
11       -3847.6563446218692661    1    1   98
ITEM: NUMBER OF ATOMS
2         
ITEM: BOX BOUNDS xy xz yz pp pp pp
   -1.5306981104573998      3.0613962209148000     -1.5306981104573998
    0.0000000000000000      2.7635040002424649      0.0000000000000003
    0.0000000000000000      5.1820131375575977      0.0000000000000005
ITEM: ATOMS id type x y z
1      1          0.0000000000000000     0.0000000000000000     0.0000000000000000
2      1         -0.0000000000000000     1.8423353878823985     2.5910062626391768
ITEM: TIMESTEP energy, energy_weight, force_weight, nsims
12       -3847.6573707636175641    1    1   98
ITEM: NUMBER OF ATOMS
2         
ITEM: BOX BOUNDS xy xz yz pp pp pp
   -1.5323914776541998      3.0647829553084001     -1.5323914776541998
    0.0000000000000000      2.7634994668868078      0.0000000000000003
    0.0000000000000000      5.1820024460604586      0.0000000000000005
ITEM: ATOMS id type x y z
1      1          0.0000000000000000     0.0000000000000000     0.0000000000000000
2      1         -0.0000000000000000     1.8423320584896516     2.5910015295085249
ITEM: TIMESTEP energy, energy_weight, force_weight, nsims
13       -3847.6583652040885681    1    1   98
ITEM: NUMBER OF ATOMS
2         
ITEM: BOX BOUNDS xy xz yz pp pp pp
   -1.5340848448510001      3.0681696897020001     -1.5340848448510001
    0.0000000000000000      2.7634973713449020      0.0000000000000003
    0.0000000000000000      5.1820005382706400      0.0000000000000005
ITEM: ATOMS id type x y z
1      1          0.0000000000000000     0.0000000000000000     0.0000000000000000
2      1         -0.0000000000000000     1.8423309672626633     2.5910002691353204
ITEM: TIMESTEP energy, energy_weight, force_weight, nsims
14       -3847.6593287596260780    1    1   98
ITEM: NUMBER OF ATOMS
2         
ITEM: BOX BOUNDS xy xz yz pp pp pp
   -1.5357782120478003      3.0715564240956001     -1.5357782120478003
    0.0000000000000000      2.7634977440973563      0.0000000000000003
    0.0000000000000000      5.1820044137531429      0.0000000000000005
ITEM: ATOMS id type x y z
1      1          0.0000000000000000     0.0000000000000000     0.0000000000000000
2      1         -0.0000000000000000     1.8423324437095221     2.5910018997209283
ITEM: TIMESTEP energy, energy_weight, force_weight, nsims
15       -3847.6602621105134858    1    1   98
ITEM: NUMBER OF ATOMS
2         
ITEM: BOX BOUNDS xy xz yz pp pp pp
   -1.5374715792446001      3.0749431584892006     -1.5374715792446001
    0.0000000000000000      2.7635036905679389      0.0000000000000003
    0.0000000000000000      5.1820141334691820      0.0000000000000005
ITEM: ATOMS id type x y z
1      1          0.0000000000000000     0.0000000000000000     0.0000000000000000
2      1         -0.0000000000000000     1.8423358962100642     2.5910070667345906
ITEM: TIMESTEP energy, energy_weight, force_weight, nsims
16       -3847.6611641682952722    1    1   98
ITEM: NUMBER OF ATOMS
2         
ITEM: BOX BOUNDS xy xz yz pp pp pp
   -1.5391384875789493      3.0782769751579000     -1.5391384875789493
    0.0000000000000000      2.7634646671854770      0.0000000000000003
    0.0000000000000000      5.1819406772110570      0.0000000000000005
ITEM: ATOMS id type x y z
1      1          0.0000000000000000     0.0000000000000000     0.0000000000000000
2      1         -0.0000000000000000     1.8423099833421159     2.5909703386055285
ITEM: TIMESTEP energy, energy_weight, force_weight, nsims
17       -3847.6620372459401551    1    1   98
ITEM: NUMBER OF ATOMS
2         
ITEM: BOX BOUNDS xy xz yz pp pp pp
   -1.5408318547757494      3.0816637095515005     -1.5408318547757494
    0.0000000000000000      2.7634757682128885      0.0000000000000003
    0.0000000000000000      5.1819623658051954      0.0000000000000005
ITEM: ATOMS id type x y z
1      1          0.0000000000000000     0.0000000000000000     0.0000000000000000
2      1         -0.0000000000000000     1.8423177951413343     2.5909814910689688
ITEM: TIMESTEP energy, energy_weight, force_weight, nsims
18       -3847.6628802549917054    1    1   98
ITEM: NUMBER OF ATOMS
2         
ITEM: BOX BOUNDS xy xz yz pp pp pp
   -1.5425252219725500      3.0850504439451005     -1.5425252219725500
    0.0000000000000000      2.7634925511222588      0.0000000000000003
    0.0000000000000000      5.1819931662494669      0.0000000000000005
ITEM: ATOMS id type x y z
1      1          0.0000000000000000     0.0000000000000000     0.0000000000000000
2      1         -0.0000000000000000     1.8423279560747798     2.5909959661146451
ITEM: TIMESTEP energy, energy_weight, force_weight, nsims
19       -3847.6636948281357036    1    1   98
ITEM: NUMBER OF ATOMS
2         
ITEM: BOX BOUNDS xy xz yz pp pp pp
   -1.5441921303068995      3.0883842606138003     -1.5441921303068995
    0.0000000000000000      2.7634615293231439      0.0000000000000003
    0.0000000000000000      5.1819381831986817      0.0000000000000005
ITEM: ATOMS id type x y z
1      1          0.0000000000000000     0.0000000000000000     0.0000000000000000
2      1         -0.0000000000000000     1.8423086127307071     2.5909687827609149
ITEM: TIMESTEP energy, energy_weight, force_weight, nsims
20       -3847.6644800129702162    1    1   98
ITEM: NUMBER OF ATOMS
2         
ITEM: BOX BOUNDS xy xz yz pp pp pp
   -1.5458854975036995      3.0917709950074004     -1.5458854975036995
    0.0000000000000000      2.7634836589865195      0.0000000000000003
    0.0000000000000000      5.1819782350371284      0.0000000000000005
ITEM: ATOMS id type x y z
1      1          0.0000000000000000     0.0000000000000000     0.0000000000000000
2      1         -0.0000000000000000     1.8423232637966114     2.5909891175185642
ITEM: TIMESTEP energy, energy_weight, force_weight, nsims
21       -3847.6652364897836378    1    1   98
ITEM: NUMBER OF ATOMS
2         
ITEM: BOX BOUNDS xy xz yz pp pp pp
   -1.5475524058380494      3.0951048116761006     -1.5475524058380494
    0.0000000000000000      2.7634612360001953      0.0000000000000003
    0.0000000000000000      5.1819358994813465      0.0000000000000005
ITEM: ATOMS id type x y z
1      1          0.0000000000000000     0.0000000000000000     0.0000000000000000
2      1         -0.0000000000000000     1.8423082128579187     2.5909682592511549
ITEM: TIMESTEP energy, energy_weight, force_weight, nsims
22       -3847.6659650749143111    1    1   98
ITEM: NUMBER OF ATOMS
2         
ITEM: BOX BOUNDS xy xz yz pp pp pp
   -1.5492457730348501      3.0984915460697002     -1.5492457730348501
    0.0000000000000000      2.7634919355832821      0.0000000000000003
    0.0000000000000000      5.1819885269525257      0.0000000000000005
ITEM: ATOMS id type x y z
1      1          0.0000000000000000     0.0000000000000000     0.0000000000000000
2      1         -0.0000000000000000     1.8423271307911091     2.5909945733254172
ITEM: TIMESTEP energy, energy_weight, force_weight, nsims
23       -3847.6666654962514258    1    1   98
ITEM: NUMBER OF ATOMS
2         
ITEM: BOX BOUNDS xy xz yz pp pp pp
   -1.5509126813691996      3.1018253627384005     -1.5509126813691996
    0.0000000000000000      2.7634751503455335      0.0000000000000003
    0.0000000000000000      5.1819590801965747      0.0000000000000005
ITEM: ATOMS id type x y z
1      1          0.0000000000000000     0.0000000000000000     0.0000000000000000
2      1         -0.0000000000000000     1.8423164567144854     2.5909798502808234
ITEM: TIMESTEP energy, energy_weight, force_weight, nsims
24       -3847.6673387061910034    1    1   98
ITEM: NUMBER OF ATOMS
2         
ITEM: BOX BOUNDS xy xz yz pp pp pp
   -1.5525795897035495      3.1051591794070998     -1.5525795897035495
    0.0000000000000000      2.7634612529867844      0.0000000000000003
    0.0000000000000000      5.1819362159822582      0.0000000000000005
ITEM: ATOMS id type x y z
1      1          0.0000000000000000     0.0000000000000000     0.0000000000000000
2      1         -0.0000000000000000     1.8423083300336369     2.5909681079911291
ITEM: TIMESTEP energy, energy_weight, force_weight, nsims
25       -3847.6679844326217790    1    1   98
ITEM: NUMBER OF ATOMS
2         
ITEM: BOX BOUNDS xy xz yz pp pp pp
   -1.5542729569003495      3.1085459138007003     -1.5542729569003495
    0.0000000000000000      2.7635004259147369      0.0000000000000003
    0.0000000000000000      5.1820082092240431      0.0000000000000005
ITEM: ATOMS id type x y z
1      1          0.0000000000000000     0.0000000000000000     0.0000000000000000
2      1         -0.0000000000000000     1.8423335136582935     2.5910034829028383
ITEM: TIMESTEP energy, energy_weight, force_weight, nsims
26       -3847.6686032197694658    1    1   98
ITEM: NUMBER OF ATOMS
2         
ITEM: BOX BOUNDS xy xz yz pp pp pp
   -1.5559398652346994      3.1118797304694001     -1.5559398652346994
    0.0000000000000000      2.7634954590041594      0.0000000000000003
    0.0000000000000000      5.1819954835695574      0.0000000000000005
ITEM: ATOMS id type x y z
1      1          0.0000000000000000     0.0000000000000000     0.0000000000000000
2      1         -0.0000000000000000     1.8423292687095292     2.5909977417847792
ITEM: TIMESTEP energy, energy_weight, force_weight, nsims
27       -3847.6691946594646652    1    1   98
ITEM: NUMBER OF ATOMS
2         
ITEM: BOX BOUNDS xy xz yz pp pp pp
   -1.5576067735690500      3.1152135471380999     -1.5576067735690500
    0.0000000000000000      2.7634903615984729      0.0000000000000003
    0.0000000000000000      5.1819895141326828      0.0000000000000005
ITEM: ATOMS id type x y z
1      1          0.0000000000000000     0.0000000000000000     0.0000000000000000
2      1         -0.0000000000000000     1.8423273230941211     2.5909950685876963
ITEM: TIMESTEP energy, energy_weight, force_weight, nsims
28       -3847.6697606565039678    1    1   98
ITEM: NUMBER OF ATOMS
2         
ITEM: BOX BOUNDS xy xz yz pp pp pp
   -1.5592736819033992      3.1185473638068002     -1.5592736819033992
    0.0000000000000000      2.7634913907953051      0.0000000000000003
    0.0000000000000000      5.1819903609221170      0.0000000000000005
ITEM: ATOMS id type x y z
1      1          0.0000000000000000     0.0000000000000000     0.0000000000000000
2      1         -0.0000000000000000     1.8423273859603786     2.5909951804610585
ITEM: TIMESTEP energy, energy_weight, force_weight, nsims
29       -3847.6703001224327636    1    1   98
ITEM: NUMBER OF ATOMS
2         
ITEM: BOX BOUNDS xy xz yz pp pp pp
   -1.5609405902377500      3.1218811804755000     -1.5609405902377500
    0.0000000000000000      2.7634954647192740      0.0000000000000003
    0.0000000000000000      5.1819980839465600      0.0000000000000005
ITEM: ATOMS id type x y z
1      1          0.0000000000000000     0.0000000000000000     0.0000000000000000
2      1         -0.0000000000000000     1.8423297894993187     2.5909984175970440
ITEM: TIMESTEP energy, energy_weight, force_weight, nsims
30       -3847.6708138735916691    1    1   98
ITEM: NUMBER OF ATOMS
2         
ITEM: BOX BOUNDS xy xz yz pp pp pp
   -1.5626074985721006      3.1252149971442003     -1.5626074985721006
    0.0000000000000000      2.7635026133747305      0.0000000000000003
    0.0000000000000000      5.1820096179997144      0.0000000000000005
ITEM: ATOMS id type x y z
1      1          0.0000000000000000     0.0000000000000000     0.0000000000000000
2      1         -0.0000000000000000     1.8423339296709880     2.5910044964783578
ITEM: TIMESTEP energy, energy_weight, force_weight, nsims
31       -3847.6713020460379084    1    1   98
ITEM: NUMBER OF ATOMS
2         
ITEM: BOX BOUNDS xy xz yz pp pp pp
   -1.5642479480439999      3.1284958960880003     -1.5642479480439999
    0.0000000000000000      2.7634629949324525      0.0000000000000003
    0.0000000000000000      5.1819404904114883      0.0000000000000005
ITEM: ATOMS id type x y z
1      1          0.0000000000000000     0.0000000000000000     0.0000000000000000
2      1         -0.0000000000000000     1.8423092889874804     2.5909696195065650
ITEM: TIMESTEP energy, energy_weight, force_weight, nsims
32       -3847.6717643676583975    1    1   98
ITEM: NUMBER OF ATOMS
2         
ITEM: BOX BOUNDS xy xz yz pp pp pp
   -1.5659148563783496      3.1318297127567005     -1.5659148563783496
    0.0000000000000000      2.7634764292611087      0.0000000000000003
    0.0000000000000000      5.1819630246837880      0.0000000000000005
ITEM: ATOMS id type x y z
1      1          0.0000000000000000     0.0000000000000000     0.0000000000000000
2      1         -0.0000000000000000     1.8423179326903765     2.5909815123418940
ITEM: TIMESTEP energy, energy_weight, force_weight, nsims
33       -3847.6722020629649705    1    1   98
ITEM: NUMBER OF ATOMS
2         
ITEM: BOX BOUNDS xy xz yz pp pp pp
   -1.5675817647126999      3.1351635294254003     -1.5675817647126999
    0.0000000000000000      2.7634930281755485      0.0000000000000003
    0.0000000000000000      5.1819926615731244      0.0000000000000005
ITEM: ATOMS id type x y z
1      1          0.0000000000000000     0.0000000000000000     0.0000000000000000
2      1         -0.0000000000000000     1.8423283719340124     2.5909963307865627
ITEM: TIMESTEP energy, energy_weight, force_weight, nsims
34       -3847.6726144516733257    1    1   98
ITEM: NUMBER OF ATOMS
2         
ITEM: BOX BOUNDS xy xz yz pp pp pp
   -1.5692222141846004      3.1384444283691999     -1.5692222141846004
    0.0000000000000000      2.7634662265120760      0.0000000000000003
    0.0000000000000000      5.1819420876800963      0.0000000000000005
ITEM: ATOMS id type x y z
1      1          0.0000000000000000     0.0000000000000000     0.0000000000000000
2      1         -0.0000000000000000     1.8423098761413887     2.5909704161511629
ITEM: TIMESTEP energy, energy_weight, force_weight, nsims
35       -3847.6730026222394372    1    1   98
ITEM: NUMBER OF ATOMS
2         
ITEM: BOX BOUNDS xy xz yz pp pp pp
   -1.5708891225189494      3.1417782450379002     -1.5708891225189494
    0.0000000000000000      2.7634861518876219      0.0000000000000003
    0.0000000000000000      5.1819830600223655      0.0000000000000005
ITEM: ATOMS id type x y z
1      1          0.0000000000000000     0.0000000000000000     0.0000000000000000
2      1         -0.0000000000000000     1.8423246248881215     2.5909909016555339
ITEM: TIMESTEP energy, energy_weight, force_weight, nsims
36       -3847.6733665746623956    1    1   98
ITEM: NUMBER OF ATOMS
2         
ITEM: BOX BOUNDS xy xz yz pp pp pp
   -1.5725295719908499      3.1450591439817002     -1.5725295719908499
    0.0000000000000000      2.7634659729832562      0.0000000000000003
    0.0000000000000000      5.1819409732857276      0.0000000000000005
ITEM: ATOMS id type x y z
1      1          0.0000000000000000     0.0000000000000000     0.0000000000000000
2      1         -0.0000000000000000     1.8423102293142850     2.5909708011487780
ITEM: TIMESTEP energy, energy_weight, force_weight, nsims
37       -3847.6737064450003345    1    1   98
ITEM: NUMBER OF ATOMS
2         
ITEM: BOX BOUNDS xy xz yz pp pp pp
   -1.5741964803252000      3.1483929606504004     -1.5741964803252000
    0.0000000000000000      2.7634924760320079      0.0000000000000003
    0.0000000000000000      5.1819934966148251      0.0000000000000005
ITEM: ATOMS id type x y z
1      1          0.0000000000000000     0.0000000000000000     0.0000000000000000
2      1         -0.0000000000000000     1.8423287371403994     2.5909970631467081
ITEM: TIMESTEP energy, energy_weight, force_weight, nsims
38       -3847.6740220971951203    1    1   98
ITEM: NUMBER OF ATOMS
2         
ITEM: BOX BOUNDS xy xz yz pp pp pp
   -1.5758369297971002      3.1516738595942000     -1.5758369297971002
    0.0000000000000000      2.7634790386341224      0.0000000000000003
    0.0000000000000000      5.1819664015754849      0.0000000000000005
ITEM: ATOMS id type x y z
1      1          0.0000000000000000     0.0000000000000000     0.0000000000000000
2      1         -0.0000000000000000     1.8423185186430522     2.5909825704529705
ITEM: TIMESTEP energy, energy_weight, force_weight, nsims
39       -3847.6743150278748544    1    1   98
ITEM: NUMBER OF ATOMS
2         
ITEM: BOX BOUNDS xy xz yz pp pp pp
   -1.5774773792689996      3.1549547585380000     -1.5774773792689996
    0.0000000000000000      2.7634658874152955      0.0000000000000003
    0.0000000000000000      5.1819406269392188      0.0000000000000005
ITEM: ATOMS id type x y z
1      1          0.0000000000000000     0.0000000000000000     0.0000000000000000
2      1         -0.0000000000000000     1.8423102761147208     2.5909709444605604
ITEM: TIMESTEP energy, energy_weight, force_weight, nsims
40       -3847.6745842846389678    1    1   98
ITEM: NUMBER OF ATOMS
2         
ITEM: BOX BOUNDS xy xz yz pp pp pp
   -1.5791442876033497      3.1582885752067003     -1.5791442876033497
    0.0000000000000000      2.7635025033058627      0.0000000000000003
    0.0000000000000000      5.1820125123875957      0.0000000000000005
ITEM: ATOMS id type x y z
1      1          0.0000000000000000     0.0000000000000000     0.0000000000000000
2      1         -0.0000000000000000     1.8423348969276225     2.5910056245360829
ITEM: TIMESTEP energy, energy_weight, force_weight, nsims
41       -3847.6748310920020231    1    1   98
ITEM: NUMBER OF ATOMS
2         
ITEM: BOX BOUNDS xy xz yz pp pp pp
   -1.5807847370752497      3.1615694741505003     -1.5807847370752497
    0.0000000000000000      2.7634962616602112      0.0000000000000003
    0.0000000000000000      5.1819989007316440      0.0000000000000005
ITEM: ATOMS id type x y z
1      1          0.0000000000000000     0.0000000000000000     0.0000000000000000
2      1         -0.0000000000000000     1.8423306303355085     2.5909997665227689
ITEM: TIMESTEP energy, energy_weight, force_weight, nsims
42       -3847.6750550417918930    1    1   98
ITEM: NUMBER OF ATOMS
2         
ITEM: BOX BOUNDS xy xz yz pp pp pp
   -1.5824251865471499      3.1648503730942998     -1.5824251865471499
    0.0000000000000000      2.7634935433296004      0.0000000000000003
    0.0000000000000000      5.1819930771889355      0.0000000000000005
ITEM: ATOMS id type x y z
1      1          0.0000000000000000     0.0000000000000000     0.0000000000000000
2      1         -0.0000000000000000     1.8423283959163252     2.5909965385944682
ITEM: TIMESTEP energy, energy_weight, force_weight, nsims
43       -3847.6752564061239354    1    1   98
ITEM: NUMBER OF ATOMS
2         
ITEM: BOX BOUNDS xy xz yz pp pp pp
   -1.5840656360190501      3.1681312720381003     -1.5840656360190501
    0.0000000000000000      2.7634912097108497      0.0000000000000003
    0.0000000000000000      5.1819919326843822      0.0000000000000005
ITEM: ATOMS id type x y z
1      1          0.0000000000000000     0.0000000000000000     0.0000000000000000
2      1         -0.0000000000000000     1.8423282123711966     2.5909962831553184
ITEM: TIMESTEP energy, energy_weight, force_weight, nsims
44       -3847.6754358652815426    1    1   98
ITEM: NUMBER OF ATOMS
2         
ITEM: BOX BOUNDS xy xz yz pp pp pp
   -1.5857060854909499      3.1714121709819003     -1.5857060854909499
    0.0000000000000000      2.7634956233136956      0.0000000000000003
    0.0000000000000000      5.1819986878436364      0.0000000000000005
ITEM: ATOMS id type x y z
1      1          0.0000000000000000     0.0000000000000000     0.0000000000000000
2      1         -0.0000000000000000     1.8423300984012463     2.5909987096393841
ITEM: TIMESTEP energy, energy_weight, force_weight, nsims
45       -3847.6755932832074905    1    1   98
ITEM: NUMBER OF ATOMS
2         
ITEM: BOX BOUNDS xy xz yz pp pp pp
   -1.5873465349628495      3.1746930699257003     -1.5873465349628495
    0.0000000000000000      2.7635004741227842      0.0000000000000003
    0.0000000000000000      5.1820070523367399      0.0000000000000005
ITEM: ATOMS id type x y z
1      1          0.0000000000000000     0.0000000000000000     0.0000000000000000
2      1         -0.0000000000000000     1.8423337552382910     2.5910038436376772
ITEM: TIMESTEP energy, energy_weight, force_weight, nsims
46       -3847.6757283877900591    1    1   98
ITEM: NUMBER OF ATOMS
2         
ITEM: BOX BOUNDS xy xz yz pp pp pp
   -1.5889605255723005      3.1779210511446001     -1.5889605255723005
    0.0000000000000000      2.7634629434964233      0.0000000000000003
    0.0000000000000000      5.1819371335226903      0.0000000000000005
ITEM: ATOMS id type x y z
1      1          0.0000000000000000     0.0000000000000000     0.0000000000000000
2      1         -0.0000000000000000     1.8423085230669138     2.5909685667613456
ITEM: TIMESTEP energy, energy_weight, force_weight, nsims
47       -3847.6758418593112765    1    1   98
ITEM: NUMBER OF ATOMS
2         
ITEM: BOX BOUNDS xy xz yz pp pp pp
   -1.5906009750441998      3.1812019500884001     -1.5906009750441998
    0.0000000000000000      2.7634751408203426      0.0000000000000003
    0.0000000000000000      5.1819584737594466      0.0000000000000005
ITEM: ATOMS id type x y z
1      1          0.0000000000000000     0.0000000000000000     0.0000000000000000
2      1         -0.0000000000000000     1.8423161243065047     2.5909792368797233
ITEM: TIMESTEP energy, energy_weight, force_weight, nsims
48       -3847.6759346501721666    1    1   98
ITEM: NUMBER OF ATOMS
2         
ITEM: BOX BOUNDS xy xz yz pp pp pp
   -1.5922414245161003      3.1844828490322001     -1.5922414245161003
    0.0000000000000000      2.7634878474244453      0.0000000000000003
    0.0000000000000000      5.1819847453989869      0.0000000000000005
ITEM: ATOMS id type x y z
1      1          0.0000000000000000     0.0000000000000000     0.0000000000000000
2      1         -0.0000000000000000     1.8423258685128665     2.5909926911477781
ITEM: TIMESTEP energy, energy_weight, force_weight, nsims
49       -3847.6760067603718198    1    1   98
ITEM: NUMBER OF ATOMS
2         
ITEM: BOX BOUNDS xy xz yz pp pp pp
   -1.5938554151255491      3.1877108302511004     -1.5938554151255491
    0.0000000000000000      2.7634583958529819      0.0000000000000003
    0.0000000000000000      5.1819299748128662      0.0000000000000005
ITEM: ATOMS id type x y z
1      1          0.0000000000000000     0.0000000000000000     0.0000000000000000
2      1         -0.0000000000000000     1.8423065535485694     2.5909656249485997
ITEM: TIMESTEP energy, energy_weight, force_weight, nsims
50       -3847.6760894830163124    1    1   98
ITEM: NUMBER OF ATOMS
2         
ITEM: BOX BOUNDS xy xz yz pp pp pp
   -1.5971363140693500      3.1942726281386999     -1.5971363140693500
    0.0000000000000000      2.7635026043257995      0.0000000000000003
    0.0000000000000000      5.1820109877221059      0.0000000000000005
ITEM: ATOMS id type x y z
1      1          0.0000000000000000     0.0000000000000000     0.0000000000000000
2      1         -0.0000000000000000     1.8423350695505327     2.5910061327155787
ITEM: TIMESTEP energy, energy_weight, force_weight, nsims
51       -3847.6760996872899341    1    1   98
ITEM: NUMBER OF ATOMS
2         
ITEM: BOX BOUNDS xy xz yz pp pp pp
   -1.5987503046787996      3.1975006093576002     -1.5987503046787996
    0.0000000000000000      2.7634814691452272      0.0000000000000003
    0.0000000000000000      5.1819750050450342      0.0000000000000006
ITEM: ATOMS id type x y z
1      1          0.0000000000000000     0.0000000000000000     0.0000000000000000
2      1         -0.0000000000000000     1.8423218320969805     2.5909871827724564
ITEM: TIMESTEP energy, energy_weight, force_weight, nsims
52       -3847.6760908435862802    1    1   98
ITEM: NUMBER OF ATOMS
2         
ITEM: BOX BOUNDS xy xz yz pp pp pp
   -1.6003642952882497      3.2007285905764999     -1.6003642952882497
    0.0000000000000000      2.7634642549034822      0.0000000000000003
    0.0000000000000000      5.1819411794002663      0.0000000000000006
ITEM: ATOMS id type x y z
1      1          0.0000000000000000     0.0000000000000000     0.0000000000000000