ITEM: TIMESTEP energy, energy_weight, force_weight, nsims
1        -3847.6444867117770627    1    1   98
ITEM: NUMBER OF ATOMS
2         
ITEM: BOX BOUNDS xy xz yz pp pp pp
   -1.5954958645974497      3.1909917291949004     -1.5954958645974497
    0.0000000000000000      2.6216677488388624      0.0000000000000003
    0.0000000000000000      5.1819695357335780      0.0000000000000006
ITEM: ATOMS id type x y z
1      1          0.0000000000000000     0.0000000000000000     0.0000000000000000
2      1         -0.0000000000000000     1.7477782864931262     2.5909844487676166
ITEM: TIMESTEP energy, energy_weight, force_weight, nsims
2        -3847.6458331316575823    1    1   98
ITEM: NUMBER OF ATOMS
2         
ITEM: BOX BOUNDS xy xz yz pp pp pp
   -1.5954958645974495      3.1909917291949004     -1.5954958645974495
    0.0000000000000000      2.6246385621387436      0.0000000000000003
    0.0000000000000000      5.1819695357335780      0.0000000000000006
ITEM: ATOMS id type x y z
1      1          0.0000000000000000     0.0000000000000000     0.0000000000000000
2      1         -0.0000000000000000     1.7497586159602647     2.5909844487676166
ITEM: TIMESTEP energy, energy_weight, force_weight, nsims
3        -3847.6471452651790059    1    1   98
ITEM: NUMBER OF ATOMS
2         
ITEM: BOX BOUNDS xy xz yz pp pp pp
   -1.5954958645974495      3.1909917291949004     -1.5954958645974495
    0.0000000000000000      2.6276061844468952      0.0000000000000003
    0.0000000000000000      5.1819695357335780      0.0000000000000006
ITEM: ATOMS id type x y z
1      1          0.0000000000000000     0.0000000000000000     0.0000000000000000
2      1         -0.0000000000000000     1.7517370308323656     2.5909844487676166
ITEM: TIMESTEP energy, energy_weight, force_weight, nsims
4        -3847.6484231123408790    1    1   98
ITEM: NUMBER OF ATOMS
2         
ITEM: BOX BOUNDS xy xz yz pp pp pp
   -1.5954958645974500      3.1909917291949004     -1.5954958645974500
    0.0000000000000000      2.6305706157633169      0.0000000000000003
    0.0000000000000000      5.1819695357335780      0.0000000000000006
ITEM: ATOMS id type x y z
1      1          0.0000000000000000     0.0000000000000000     0.0000000000000000
2      1         -0.0000000000000000     1.7537128929110830     2.5909844487676166
ITEM: TIMESTEP energy, energy_weight, force_weight, nsims
5        -3847.6496665370877963    1    1   98
ITEM: NUMBER OF ATOMS
2         
ITEM: BOX BOUNDS xy xz yz pp pp pp
   -1.5954958645974495      3.1909917291949004     -1.5954958645974495
    0.0000000000000000      2.6335286650962804      0.0000000000000003
    0.0000000000000000      5.1819695357335780      0.0000000000000006
ITEM: ATOMS id type x y z
1      1          0.0000000000000000     0.0000000000000000     0.0000000000000000
2      1         -0.0000000000000000     1.7556868403947634     2.5909844487676166
ITEM: TIMESTEP energy, energy_weight, force_weight, nsims
6        -3847.6508775802726632    1    1   98
ITEM: NUMBER OF ATOMS
2         
ITEM: BOX BOUNDS xy xz yz pp pp pp
   -1.5954958645974493      3.1909917291949004     -1.5954958645974493
    0.0000000000000000      2.6364867144292443      0.0000000000000003
    0.0000000000000000      5.1819695357335780      0.0000000000000006
ITEM: ATOMS id type x y z
1      1          0.0000000000000000     0.0000000000000000     0.0000000000000000
2      1         -0.0000000000000000     1.7576582350850598     2.5909844487676166
ITEM: TIMESTEP energy, energy_weight, force_weight, nsims
7        -3847.6520555616107231    1    1   98
ITEM: NUMBER OF ATOMS
2         
ITEM: BOX BOUNDS xy xz yz pp pp pp
   -1.5954958645974502      3.1909917291949004     -1.5954958645974502
    0.0000000000000000      2.6394415727704779      0.0000000000000003
    0.0000000000000000      5.1819695357335771      0.0000000000000006
ITEM: ATOMS id type x y z
1      1          0.0000000000000000     0.0000000000000000     0.0000000000000000
2      1         -0.0000000000000000     1.7596277151803188     2.5909844487676166
ITEM: TIMESTEP energy, energy_weight, force_weight, nsims
8        -3847.6532008892745580    1    1   98
ITEM: NUMBER OF ATOMS
2         
ITEM: BOX BOUNDS xy xz yz pp pp pp
   -1.5954958645974500      3.1909917291949004     -1.5954958645974500
    0.0000000000000000      2.6423932401199837      0.0000000000000003
    0.0000000000000000      5.1819695357335780      0.0000000000000006
ITEM: ATOMS id type x y z
1      1          0.0000000000000000     0.0000000000000000     0.0000000000000000
2      1         -0.0000000000000000     1.7615946424821944     2.5909844487676166
ITEM: TIMESTEP energy, energy_weight, force_weight, nsims
9        -3847.6543143796034201    1    1   98
ITEM: NUMBER OF ATOMS
2         
ITEM: BOX BOUNDS xy xz yz pp pp pp
   -1.5954958645974495      3.1909917291949004     -1.5954958645974495
    0.0000000000000000      2.6453385254860313      0.0000000000000003
    0.0000000000000000      5.1819695357335771      0.0000000000000006
ITEM: ATOMS id type x y z
1      1          0.0000000000000000     0.0000000000000000     0.0000000000000000
2      1         -0.0000000000000000     1.7635596551890329     2.5909844487676166
ITEM: TIMESTEP energy, energy_weight, force_weight, nsims
10       -3847.6553954883725055    1    1   98
ITEM: NUMBER OF ATOMS
2         
ITEM: BOX BOUNDS xy xz yz pp pp pp
   -1.5954958645974500      3.1909917291949004     -1.5954958645974500
    0.0000000000000000      2.6482838108520776      0.0000000000000003
    0.0000000000000000      5.1819695357335780      0.0000000000000006
ITEM: ATOMS id type x y z
1      1          0.0000000000000000     0.0000000000000000     0.0000000000000000
2      1         -0.0000000000000000     1.7655224342016607     2.5909844487676166
ITEM: TIMESTEP energy, energy_weight, force_weight, nsims
11       -3847.6564451679778358    1    1   98
ITEM: NUMBER OF ATOMS
2         
ITEM: BOX BOUNDS xy xz yz pp pp pp
   -1.5954958645974493      3.1909917291949004     -1.5954958645974493
    0.0000000000000000      2.6512259052263962      0.0000000000000003
    0.0000000000000000      5.1819695357335780      0.0000000000000006
ITEM: ATOMS id type x y z
1      1          0.0000000000000000     0.0000000000000000     0.0000000000000000
2      1         -0.0000000000000000     1.7674832986192508     2.5909844487676166
ITEM: TIMESTEP energy, energy_weight, force_weight, nsims
12       -3847.6574636905347688    1    1   98
ITEM: NUMBER OF ATOMS
2         
ITEM: BOX BOUNDS xy xz yz pp pp pp
   -1.5954958645974495      3.1909917291949004     -1.5954958645974495
    0.0000000000000000      2.6541616176172549      0.0000000000000003
    0.0000000000000000      5.1819695357335771      0.0000000000000006
ITEM: ATOMS id type x y z
1      1          0.0000000000000000     0.0000000000000000     0.0000000000000000
2      1         -0.0000000000000000     1.7694416102434578     2.5909844487676166
ITEM: TIMESTEP energy, energy_weight, force_weight, nsims
13       -3847.6584520084425094    1    1   98
ITEM: NUMBER OF ATOMS
2         
ITEM: BOX BOUNDS xy xz yz pp pp pp
   -1.5954958645974502      3.1909917291949004     -1.5954958645974502
    0.0000000000000000      2.6570973300081144      0.0000000000000003
    0.0000000000000000      5.1819695357335780      0.0000000000000006
ITEM: ATOMS id type x y z
1      1          0.0000000000000000     0.0000000000000000     0.0000000000000000
2      1         -0.0000000000000000     1.7713976881734543     2.5909844487676166
ITEM: TIMESTEP energy, energy_weight, force_weight, nsims
14       -3847.6594090332446285    1    1   98
ITEM: NUMBER OF ATOMS
2         
ITEM: BOX BOUNDS xy xz yz pp pp pp
   -1.5954958645974495      3.1909917291949004     -1.5954958645974495
    0.0000000000000000      2.6600266604155149      0.0000000000000003
    0.0000000000000000      5.1819695357335780      0.0000000000000006
ITEM: ATOMS id type x y z
1      1          0.0000000000000000     0.0000000000000000     0.0000000000000000
2      1         -0.0000000000000000     1.7733518515084130     2.5909844487676166
ITEM: TIMESTEP energy, energy_weight, force_weight, nsims
15       -3847.6603362615678634    1    1   98
ITEM: NUMBER OF ATOMS
2         
ITEM: BOX BOUNDS xy xz yz pp pp pp
   -1.5954958645974502      3.1909917291949004     -1.5954958645974502
    0.0000000000000000      2.6629559908229155      0.0000000000000003
    0.0000000000000000      5.1819695357335780      0.0000000000000006
ITEM: ATOMS id type x y z
1      1          0.0000000000000000     0.0000000000000000     0.0000000000000000
2      1         -0.0000000000000000     1.7753037811491617     2.5909844487676166
ITEM: TIMESTEP energy, energy_weight, force_weight, nsims
16       -3847.6612330131274575    1    1   98
ITEM: NUMBER OF ATOMS
2         
ITEM: BOX BOUNDS xy xz yz pp pp pp
   -1.5954958645974500      3.1909917291949004     -1.5954958645974500
    0.0000000000000000      2.6658821302385873      0.0000000000000003
    0.0000000000000000      5.1819695357335780      0.0000000000000006
ITEM: ATOMS id type x y z
1      1          0.0000000000000000     0.0000000000000000     0.0000000000000000
2      1         -0.0000000000000000     1.7772537961948724     2.5909844487676166
ITEM: TIMESTEP energy, energy_weight, force_weight, nsims
17       -3847.6621009206073722    1    1   98
ITEM: NUMBER OF ATOMS
2         
ITEM: BOX BOUNDS xy xz yz pp pp pp
   -1.5954958645974500      3.1909917291949004     -1.5954958645974500
    0.0000000000000000      2.6688018876708011      0.0000000000000003
    0.0000000000000000      5.1819695357335780      0.0000000000000006
ITEM: ATOMS id type x y z
1      1          0.0000000000000000     0.0000000000000000     0.0000000000000000
2      1         -0.0000000000000000     1.7792012584472003     2.5909844487676166
ITEM: TIMESTEP energy, energy_weight, force_weight, nsims
18       -3847.6629391676647174    1    1   98
ITEM: NUMBER OF ATOMS
2         
ITEM: BOX BOUNDS xy xz yz pp pp pp
   -1.5954958645974502      3.1909917291949004     -1.5954958645974502
    0.0000000000000000      2.6717216451030135      0.0000000000000003
    0.0000000000000000      5.1819695357335780      0.0000000000000006
ITEM: ATOMS id type x y z
1      1          0.0000000000000000     0.0000000000000000     0.0000000000000000
2      1         -0.0000000000000000     1.7811468061044902     2.5909844487676166
ITEM: TIMESTEP energy, energy_weight, force_weight, nsims
19       -3847.6637488427563767    1    1   98
ITEM: NUMBER OF ATOMS
2         
ITEM: BOX BOUNDS xy xz yz pp pp pp
   -1.5954958645974504      3.1909917291949004     -1.5954958645974504
    0.0000000000000000      2.6746350205517695      0.0000000000000003
    0.0000000000000000      5.1819695357335780      0.0000000000000006
ITEM: ATOMS id type x y z
1      1          0.0000000000000000     0.0000000000000000     0.0000000000000000
2      1         -0.0000000000000000     1.7830904391667430     2.5909844487676166
ITEM: TIMESTEP energy, energy_weight, force_weight, nsims
20       -3847.6645299458823501    1    1   98
ITEM: NUMBER OF ATOMS
2         
ITEM: BOX BOUNDS xy xz yz pp pp pp
   -1.5954958645974493      3.1909917291949004     -1.5954958645974493
    0.0000000000000000      2.6775483960005242      0.0000000000000003
    0.0000000000000000      5.1819695357335789      0.0000000000000006
ITEM: ATOMS id type x y z
1      1          0.0000000000000000     0.0000000000000000     0.0000000000000000
2      1         -0.0000000000000000     1.7850315194356123     2.5909844487676166
ITEM: TIMESTEP energy, energy_weight, force_weight, nsims
21       -3847.6652826130994072    1    1   98
ITEM: NUMBER OF ATOMS
2         
ITEM: BOX BOUNDS xy xz yz pp pp pp
   -1.5954958645974504      3.1909917291949004     -1.5954958645974504
    0.0000000000000000      2.6804553894658203      0.0000000000000003
    0.0000000000000000      5.1819695357335771      0.0000000000000006
ITEM: ATOMS id type x y z
1      1          0.0000000000000000     0.0000000000000000     0.0000000000000000
2      1         -0.0000000000000000     1.7869710042086171     2.5909844487676166
ITEM: TIMESTEP energy, energy_weight, force_weight, nsims
22       -3847.6660071165215413    1    1   98
ITEM: NUMBER OF ATOMS
2         
ITEM: BOX BOUNDS xy xz yz pp pp pp
   -1.5954958645974500      3.1909917291949004     -1.5954958645974500
    0.0000000000000000      2.6833623829311173      0.0000000000000003
    0.0000000000000000      5.1819695357335780      0.0000000000000006
ITEM: ATOMS id type x y z
1      1          0.0000000000000000     0.0000000000000000     0.0000000000000000
2      1         -0.0000000000000000     1.7889079361882383     2.5909844487676166
ITEM: TIMESTEP energy, energy_weight, force_weight, nsims
23       -3847.6667038643195156    1    1   98
ITEM: NUMBER OF ATOMS
2         
ITEM: BOX BOUNDS xy xz yz pp pp pp
   -1.5954958645974497      3.1909917291949004     -1.5954958645974497
    0.0000000000000000      2.6862629944129557      0.0000000000000003
    0.0000000000000000      5.1819695357335780      0.0000000000000006
ITEM: ATOMS id type x y z
1      1          0.0000000000000000     0.0000000000000000     0.0000000000000000
2      1         -0.0000000000000000     1.7908429535728219     2.5909844487676166
ITEM: TIMESTEP energy, energy_weight, force_weight, nsims
24       -3847.6673734007217718    1    1   98
ITEM: NUMBER OF ATOMS
2         
ITEM: BOX BOUNDS xy xz yz pp pp pp
   -1.5954958645974502      3.1909917291949004     -1.5954958645974502
    0.0000000000000000      2.6891636058947936      0.0000000000000003
    0.0000000000000000      5.1819695357335780      0.0000000000000006
ITEM: ATOMS id type x y z
1      1          0.0000000000000000     0.0000000000000000     0.0000000000000000
2      1         -0.0000000000000000     1.7927757372631954     2.5909844487676166
ITEM: TIMESTEP energy, energy_weight, force_weight, nsims
25       -3847.6680164060121569    1    1   98
ITEM: NUMBER OF ATOMS
2         
ITEM: BOX BOUNDS xy xz yz pp pp pp
   -1.5954958645974497      3.1909917291949004     -1.5954958645974497
    0.0000000000000000      2.6920610263849030      0.0000000000000003
    0.0000000000000000      5.1819695357335780      0.0000000000000006
ITEM: ATOMS id type x y z
1      1          0.0000000000000000     0.0000000000000000     0.0000000000000000
2      1         -0.0000000000000000     1.7947066063585311     2.5909844487676166
ITEM: TIMESTEP energy, energy_weight, force_weight, nsims
26       -3847.6686317917356064    1    1   98
ITEM: NUMBER OF ATOMS
2         
ITEM: BOX BOUNDS xy xz yz pp pp pp
   -1.5954958645974504      3.1909917291949004     -1.5954958645974504
    0.0000000000000000      2.6949520648915524      0.0000000000000003
    0.0000000000000000      5.1819695357335780      0.0000000000000006
ITEM: ATOMS id type x y z
1      1          0.0000000000000000     0.0000000000000000     0.0000000000000000
2      1         -0.0000000000000000     1.7966355608588296     2.5909844487676166
ITEM: TIMESTEP energy, energy_weight, force_weight, nsims
27       -3847.6692210545184025    1    1   98
ITEM: NUMBER OF ATOMS
2         
ITEM: BOX BOUNDS xy xz yz pp pp pp
   -1.5954958645974504      3.1909917291949004     -1.5954958645974504
    0.0000000000000000      2.6978431033982035      0.0000000000000003
    0.0000000000000000      5.1819695357335780      0.0000000000000006
ITEM: ATOMS id type x y z
1      1          0.0000000000000000     0.0000000000000000     0.0000000000000000
2      1         -0.0000000000000000     1.7985622816649174     2.5909844487676166
ITEM: TIMESTEP energy, energy_weight, force_weight, nsims
28       -3847.6697837861906919    1    1   98
ITEM: NUMBER OF ATOMS
2         
ITEM: BOX BOUNDS xy xz yz pp pp pp
   -1.5954958645974497      3.1909917291949004     -1.5954958645974497
    0.0000000000000000      2.7007309509131252      0.0000000000000003
    0.0000000000000000      5.1819695357335780      0.0000000000000006
ITEM: ATOMS id type x y z
1      1          0.0000000000000000     0.0000000000000000     0.0000000000000000
2      1         -0.0000000000000000     1.8004867687767949     2.5909844487676166
ITEM: TIMESTEP energy, energy_weight, force_weight, nsims
29       -3847.6703201228083344    1    1   98
ITEM: NUMBER OF ATOMS
2         
ITEM: BOX BOUNDS xy xz yz pp pp pp
   -1.5954958645974504      3.1909917291949004     -1.5954958645974504
    0.0000000000000000      2.7036156074363173      0.0000000000000003
    0.0000000000000000      5.1819695357335780      0.0000000000000006
ITEM: ATOMS id type x y z
1      1          0.0000000000000000     0.0000000000000000     0.0000000000000000
2      1         -0.0000000000000000     1.8024093412936348     2.5909844487676166
ITEM: TIMESTEP energy, energy_weight, force_weight, nsims
30       -3847.6708315609989768    1    1   98
ITEM: NUMBER OF ATOMS
2         
ITEM: BOX BOUNDS xy xz yz pp pp pp
   -1.5954958645974502      3.1909917291949004     -1.5954958645974502
    0.0000000000000000      2.7064938819760509      0.0000000000000003
    0.0000000000000000      5.1819695357335780      0.0000000000000006
ITEM: ATOMS id type x y z
1      1          0.0000000000000000     0.0000000000000000     0.0000000000000000
2      1         -0.0000000000000000     1.8043299992154374     2.5909844487676166
ITEM: TIMESTEP energy, energy_weight, force_weight, nsims
31       -3847.6713171483625047    1    1   98
ITEM: NUMBER OF ATOMS
2         
ITEM: BOX BOUNDS xy xz yz pp pp pp
   -1.5954958645974502      3.1909917291949004     -1.5954958645974502
    0.0000000000000000      2.7093721565157840      0.0000000000000003
    0.0000000000000000      5.1819695357335780      0.0000000000000006
ITEM: ATOMS id type x y z
1      1          0.0000000000000000     0.0000000000000000     0.0000000000000000
2      1         -0.0000000000000000     1.8062484234430292     2.5909844487676166
ITEM: TIMESTEP energy, energy_weight, force_weight, nsims
32       -3847.6717781094134807    1    1   98
ITEM: NUMBER OF ATOMS
2         
ITEM: BOX BOUNDS xy xz yz pp pp pp
   -1.5954958645974506      3.1909917291949004     -1.5954958645974506
    0.0000000000000000      2.7122472400637889      0.0000000000000003
    0.0000000000000000      5.1819695357335780      0.0000000000000006
ITEM: ATOMS id type x y z
1      1          0.0000000000000000     0.0000000000000000     0.0000000000000000
2      1         -0.0000000000000000     1.8081649330755833     2.5909844487676166
ITEM: TIMESTEP energy, energy_weight, force_weight, nsims
33       -3847.6722130835810276    1    1   98
ITEM: NUMBER OF ATOMS
2         
ITEM: BOX BOUNDS xy xz yz pp pp pp
   -1.5954958645974497      3.1909917291949004     -1.5954958645974497
    0.0000000000000000      2.7151191326200648      0.0000000000000003
    0.0000000000000000      5.1819695357335780      0.0000000000000006
ITEM: ATOMS id type x y z
1      1          0.0000000000000000     0.0000000000000000     0.0000000000000000
2      1         -0.0000000000000000     1.8100792090139277     2.5909844487676166
ITEM: TIMESTEP energy, energy_weight, force_weight, nsims
34       -3847.6726245198897232    1    1   98
ITEM: NUMBER OF ATOMS
2         
ITEM: BOX BOUNDS xy xz yz pp pp pp
   -1.5954958645974502      3.1909917291949004     -1.5954958645974502
    0.0000000000000000      2.7179878341846111      0.0000000000000003
    0.0000000000000000      5.1819695357335780      0.0000000000000006
ITEM: ATOMS id type x y z
1      1          0.0000000000000000     0.0000000000000000     0.0000000000000000
2      1         -0.0000000000000000     1.8119915703572342     2.5909844487676166
ITEM: TIMESTEP energy, energy_weight, force_weight, nsims
35       -3847.6730106496006556    1    1   98
ITEM: NUMBER OF ATOMS
2         
ITEM: BOX BOUNDS xy xz yz pp pp pp
   -1.5954958645974495      3.1909917291949004     -1.5954958645974495
    0.0000000000000000      2.7208533447574279      0.0000000000000003
    0.0000000000000000      5.1819695357335780      0.0000000000000006
ITEM: ATOMS id type x y z
1      1          0.0000000000000000     0.0000000000000000     0.0000000000000000
2      1         -0.0000000000000000     1.8139020171055029     2.5909844487676166
ITEM: TIMESTEP energy, energy_weight, force_weight, nsims
36       -3847.6733737856825428    1    1   98
ITEM: NUMBER OF ATOMS
2         
ITEM: BOX BOUNDS xy xz yz pp pp pp
   -1.5954958645974502      3.1909917291949004     -1.5954958645974502
    0.0000000000000000      2.7237156643385156      0.0000000000000003
    0.0000000000000000      5.1819695357335780      0.0000000000000006
ITEM: ATOMS id type x y z
1      1          0.0000000000000000     0.0000000000000000     0.0000000000000000
2      1         -0.0000000000000000     1.8158102301595616     2.5909844487676166
ITEM: TIMESTEP energy, energy_weight, force_weight, nsims
37       -3847.6737125675640527    1    1   98
ITEM: NUMBER OF ATOMS
2         
ITEM: BOX BOUNDS xy xz yz pp pp pp
   -1.5954958645974500      3.1909917291949004     -1.5954958645974500
    0.0000000000000000      2.7265747929278747      0.0000000000000003
    0.0000000000000000      5.1819695357335780      0.0000000000000006
ITEM: ATOMS id type x y z
1      1          0.0000000000000000     0.0000000000000000     0.0000000000000000
2      1         -0.0000000000000000     1.8177168477177554     2.5909844487676166
ITEM: TIMESTEP energy, energy_weight, force_weight, nsims
38       -3847.6740275394740820    1    1   98
ITEM: NUMBER OF ATOMS
2         
ITEM: BOX BOUNDS xy xz yz pp pp pp
   -1.5954958645974491      3.1909917291949004     -1.5954958645974491
    0.0000000000000000      2.7294307305255043      0.0000000000000003
    0.0000000000000000      5.1819695357335780      0.0000000000000006
ITEM: ATOMS id type x y z
1      1          0.0000000000000000     0.0000000000000000     0.0000000000000000
2      1         -0.0000000000000000     1.8196212315817393     2.5909844487676166
ITEM: TIMESTEP energy, energy_weight, force_weight, nsims
39       -3847.6743192456410725    1    1   98
ITEM: NUMBER OF ATOMS
2         
ITEM: BOX BOUNDS xy xz yz pp pp pp
   -1.5954958645974502      3.1909917291949004     -1.5954958645974502
    0.0000000000000000      2.7322866681231330      0.0000000000000003
    0.0000000000000000      5.1819695357335780      0.0000000000000006
ITEM: ATOMS id type x y z
1      1          0.0000000000000000     0.0000000000000000     0.0000000000000000
2      1         -0.0000000000000000     1.8215233817515124     2.5909844487676166
ITEM: TIMESTEP energy, energy_weight, force_weight, nsims
40       -3847.6745878221213388    1    1   98
ITEM: NUMBER OF ATOMS
2         
ITEM: BOX BOUNDS xy xz yz pp pp pp
   -1.5954958645974502      3.1909917291949004     -1.5954958645974502
    0.0000000000000000      2.7351362237373045      0.0000000000000003
    0.0000000000000000      5.1819695357335780      0.0000000000000006
ITEM: ATOMS id type x y z
1      1          0.0000000000000000     0.0000000000000000     0.0000000000000000
2      1         -0.0000000000000000     1.8234239364254206     2.5909844487676166
ITEM: TIMESTEP energy, energy_weight, force_weight, nsims
41       -3847.6748332689139716    1    1   98
ITEM: NUMBER OF ATOMS
2         
ITEM: BOX BOUNDS xy xz yz pp pp pp
   -1.5954958645974502      3.1909917291949004     -1.5954958645974502
    0.0000000000000000      2.7379825883597460      0.0000000000000003
    0.0000000000000000      5.1819695357335789      0.0000000000000006
ITEM: ATOMS id type x y z
1      1          0.0000000000000000     0.0000000000000000     0.0000000000000000
2      1         -0.0000000000000000     1.8253222574051189     2.5909844487676166
ITEM: TIMESTEP energy, energy_weight, force_weight, nsims
42       -3847.6750566744763091    1    1   98
ITEM: NUMBER OF ATOMS
2         
ITEM: BOX BOUNDS xy xz yz pp pp pp
   -1.5954958645974493      3.1909917291949004     -1.5954958645974493
    0.0000000000000000      2.7408289529821888      0.0000000000000003
    0.0000000000000000      5.1819695357335780      0.0000000000000006
ITEM: ATOMS id type x y z
1      1          0.0000000000000000     0.0000000000000000     0.0000000000000000
2      1         -0.0000000000000000     1.8272186637897792     2.5909844487676166
ITEM: TIMESTEP energy, energy_weight, force_weight, nsims
43       -3847.6752573585226855    1    1   98
ITEM: NUMBER OF ATOMS
2         
ITEM: BOX BOUNDS xy xz yz pp pp pp
   -1.5954958645974493      3.1909917291949004     -1.5954958645974493
    0.0000000000000000      2.7436689356211721      0.0000000000000003
    0.0000000000000000      5.1819695357335780      0.0000000000000006
ITEM: ATOMS id type x y z
1      1          0.0000000000000000     0.0000000000000000     0.0000000000000000
2      1         -0.0000000000000000     1.8291131555794020     2.5909844487676166
ITEM: TIMESTEP energy, energy_weight, force_weight, nsims
44       -3847.6754364095090750    1    1   98
ITEM: NUMBER OF ATOMS
2         
ITEM: BOX BOUNDS xy xz yz pp pp pp
   -1.5954958645974495      3.1909917291949004     -1.5954958645974495
    0.0000000000000000      2.7465089182601554      0.0000000000000003
    0.0000000000000000      5.1819695357335780      0.0000000000000006
ITEM: ATOMS id type x y z
1      1          0.0000000000000000     0.0000000000000000     0.0000000000000000
2      1         -0.0000000000000000     1.8310057327739879     2.5909844487676166
ITEM: TIMESTEP energy, energy_weight, force_weight, nsims
45       -3847.6755934192647146    1    1   98
ITEM: NUMBER OF ATOMS
2         
ITEM: BOX BOUNDS xy xz yz pp pp pp
   -1.5954958645974491      3.1909917291949004     -1.5954958645974491
    0.0000000000000000      2.7493457099074097      0.0000000000000003
    0.0000000000000000      5.1819695357335780      0.0000000000000006
ITEM: ATOMS id type x y z
1      1          0.0000000000000000     0.0000000000000000     0.0000000000000000
2      1         -0.0000000000000000     1.8328963953735358     2.5909844487676166
ITEM: TIMESTEP energy, energy_weight, force_weight, nsims
46       -3847.6757281156756108    1    1   98
ITEM: NUMBER OF ATOMS
2         
ITEM: BOX BOUNDS xy xz yz pp pp pp
   -1.5954958645974497      3.1909917291949004     -1.5954958645974497
    0.0000000000000000      2.7521761195712053      0.0000000000000003
    0.0000000000000000      5.1819695357335780      0.0000000000000006
ITEM: ATOMS id type x y z
1      1          0.0000000000000000     0.0000000000000000     0.0000000000000000
2      1         -0.0000000000000000     1.8347848242788733     2.5909844487676166
ITEM: TIMESTEP energy, energy_weight, force_weight, nsims
47       -3847.6758418593112765    1    1   98
ITEM: NUMBER OF ATOMS
2         
ITEM: BOX BOUNDS xy xz yz pp pp pp
   -1.5954958645974500      3.1909917291949004     -1.5954958645974500
    0.0000000000000000      2.7550065292350010      0.0000000000000003
    0.0000000000000000      5.1819695357335771      0.0000000000000006
ITEM: ATOMS id type x y z
1      1          0.0000000000000000     0.0000000000000000     0.0000000000000000
2      1         -0.0000000000000000     1.8366716576883462     2.5909844487676166
ITEM: TIMESTEP energy, energy_weight, force_weight, nsims
48       -3847.6759349222866149    1    1   98
ITEM: NUMBER OF ATOMS
2         
ITEM: BOX BOUNDS xy xz yz pp pp pp
   -1.5954958645974500      3.1909917291949004     -1.5954958645974500
    0.0000000000000000      2.7578337479070676      0.0000000000000003
    0.0000000000000000      5.1819695357335780      0.0000000000000006
ITEM: ATOMS id type x y z
1      1          0.0000000000000000     0.0000000000000000     0.0000000000000000
2      1         -0.0000000000000000     1.8385562574036087     2.5909844487676166
ITEM: TIMESTEP energy, energy_weight, force_weight, nsims
49       -3847.6760068964290440    1    1   98
ITEM: NUMBER OF ATOMS
2         
ITEM: BOX BOUNDS xy xz yz pp pp pp
   -1.5954958645974495      3.1909917291949004     -1.5954958645974495
    0.0000000000000000      2.7606577755874060      0.0000000000000003
    0.0000000000000000      5.1819695357335780      0.0000000000000005
ITEM: ATOMS id type x y z
1      1          0.0000000000000000     0.0000000000000000     0.0000000000000000
2      1         -0.0000000000000000     1.8404389425238337     2.5909844487676166
ITEM: TIMESTEP energy, energy_weight, force_weight, nsims
50       -3847.6760892109027736    1    1   98
ITEM: NUMBER OF ATOMS
2         
ITEM: BOX BOUNDS xy xz yz pp pp pp
   -1.5954958645974497      3.1909917291949004     -1.5954958645974497
    0.0000000000000000      2.7662994489646220      0.0000000000000003
    0.0000000000000000      5.1819695357335771      0.0000000000000005
ITEM: ATOMS id type x y z
1      1          0.0000000000000000     0.0000000000000000     0.0000000000000000
2      1         -0.0000000000000000     1.8441988880783442     2.5909844487676166
ITEM: TIMESTEP energy, energy_weight, force_weight, nsims
51       -3847.6760999594043824    1    1   98
ITEM: NUMBER OF ATOMS
2         
ITEM: BOX BOUNDS xy xz yz pp pp pp
   -1.5954958645974495      3.1909917291949004     -1.5954958645974495
    0.0000000000000000      2.7691139036697723      0.0000000000000003
    0.0000000000000000      5.1819695357335780      0.0000000000000005
ITEM: ATOMS id type x y z
1      1          0.0000000000000000     0.0000000000000000     0.0000000000000000
2      1         -0.0000000000000000     1.8460758294134565     2.5909844487676166
ITEM: TIMESTEP energy, energy_weight, force_weight, nsims
52       -3847.6760900272442996    1    1   98
ITEM: NUMBER OF ATOMS
2         
ITEM: BOX BOUNDS xy xz yz pp pp pp
   -1.5954958645974502      3.1909917291949004     -1.5954958645974502
    0.0000000000000000      2.7719251673831926      0.0000000000000003
    0.0000000000000000      5.1819695357335780      0.0000000000000005
ITEM: ATOMS id type x y z
1      1          0.0000000000000000     0.0000000000000000     0.0000000000000000